 Entering Gaussian System, Link 0=/aws/chem/g03b05_fnj_080504/g03/g03
 Initial command:
 /aws/chem/g03b05_fnj_080504/g03/l1.exe /fastfs/tmp/beclsaam/dialog.tmpdir.berni1.2330770/Gau-1966088.inp -scrdir=/fastfs/tmp/beclsaam/dialog.tmpdir.berni1.2330770/
 Entering Link 1 = /aws/chem/g03b05_fnj_080504/g03/l1.exe PID=   1564714.
  
 Copyright (c) 1988,1990,1992,1993,1995,1998,2003, Gaussian, Inc.
                  All Rights Reserved.
  
 This is the Gaussian(R) 03 program.  It is based on the
 the Gaussian(R) 98 system (copyright 1998, Gaussian, Inc.),
 the Gaussian(R) 94 system (copyright 1995, Gaussian, Inc.),
 the Gaussian 92(TM) system (copyright 1992, Gaussian, Inc.),
 the Gaussian 90(TM) system (copyright 1990, Gaussian, Inc.),
 the Gaussian 88(TM) system (copyright 1988, Gaussian, Inc.),
 the Gaussian 86(TM) system (copyright 1986, Carnegie Mellon
 University), and the Gaussian 82(TM) system (copyright 1983,
 Carnegie Mellon University). Gaussian is a federally registered
 trademark of Gaussian, Inc.
  
 This software contains proprietary and confidential information,
 including trade secrets, belonging to Gaussian, Inc.
  
 This software is provided under written license and may be
 used, copied, transmitted, or stored only in accord with that
 written license.
  
 The following legend is applicable only to US Government
 contracts under DFARS:
  
                    RESTRICTED RIGHTS LEGEND
  
 Use, duplication or disclosure by the US Government is subject
 to restrictions as set forth in subparagraph (c)(1)(ii) of the
 Rights in Technical Data and Computer Software clause at DFARS
 252.227-7013.
  
 Gaussian, Inc.
 Carnegie Office Park, Building 6, Pittsburgh, PA 15106 USA
  
 The following legend is applicable only to US Government
 contracts under FAR:
  
                    RESTRICTED RIGHTS LEGEND
  
 Use, reproduction and disclosure by the US Government is subject
 to restrictions as set forth in subparagraph (c) of the
 Commercial Computer Software - Restricted Rights clause at FAR
 52.227-19.
  
 Gaussian, Inc.
 Carnegie Office Park, Building 6, Pittsburgh, PA 15106 USA
  
  
 ---------------------------------------------------------------
 Warning -- This program may not be used in any manner that
 competes with the business of Gaussian, Inc. or will provide
 assistance to any competitor of Gaussian, Inc.  The licensee
 of this program is prohibited from giving any competitor of
 Gaussian, Inc. access to this program.  By using this program,
 the user acknowledges that Gaussian, Inc. is engaged in the
 business of creating and licensing software in the field of
 computational chemistry and represents and warrants to the
 licensee that it is not a competitor of Gaussian, Inc. and that
 it will not use this program in any manner prohibited above.
 ---------------------------------------------------------------
  

 Cite this work as:
 Gaussian 03, Revision B.05,
 M. J. Frisch, G. W. Trucks, H. B. Schlegel, G. E. Scuseria, 
 M. A. Robb, J. R. Cheeseman, J. A. Montgomery, Jr., T. Vreven, 
 K. N. Kudin, J. C. Burant, J. M. Millam, S. S. Iyengar, J. Tomasi, 
 V. Barone, B. Mennucci, M. Cossi, G. Scalmani, N. Rega, 
 G. A. Petersson, H. Nakatsuji, M. Hada, M. Ehara, K. Toyota, 
 R. Fukuda, J. Hasegawa, M. Ishida, T. Nakajima, Y. Honda, O. Kitao, 
 H. Nakai, M. Klene, X. Li, J. E. Knox, H. P. Hratchian, J. B. Cross, 
 C. Adamo, J. Jaramillo, R. Gomperts, R. E. Stratmann, O. Yazyev, 
 A. J. Austin, R. Cammi, C. Pomelli, J. W. Ochterski, P. Y. Ayala, 
 K. Morokuma, G. A. Voth, P. Salvador, J. J. Dannenberg, 
 V. G. Zakrzewski, S. Dapprich, A. D. Daniels, M. C. Strain, 
 O. Farkas, D. K. Malick, A. D. Rabuck, K. Raghavachari, 
 J. B. Foresman, J. V. Ortiz, Q. Cui, A. G. Baboul, S. Clifford, 
 J. Cioslowski, B. B. Stefanov, G. Liu, A. Liashenko, P. Piskorz, 
 I. Komaromi, R. L. Martin, D. J. Fox, T. Keith, M. A. Al-Laham, 
 C. Y. Peng, A. Nanayakkara, M. Challacombe, P. M. W. Gill, 
 B. Johnson, W. Chen, M. W. Wong, C. Gonzalez, and J. A. Pople, 
 Gaussian, Inc., Pittsburgh PA, 2003.
 
 *************************************************
 Gaussian 03:  IBM64-RS6000-G03RevB.05  8-Nov-2003
                    24-Oct-2005 
 *************************************************
 %chk=water_hf631gpd.chk
 -------------------------
 # HF/6-31+G* opt pop=none
 -------------------------
 1/18=20,38=1/1,3;
 2/9=110,17=6,18=5,40=1/2;
 3/5=1,6=6,7=11,11=9,16=1,25=1,30=1/1,2,3;
 4//1;
 5/5=2,38=5/2;
 7//1,2,3,16;
 1/18=20/3(1);
 99//99;
 2/9=110/2;
 3/5=1,6=6,7=11,11=9,16=1,25=1,30=1/1,2,3;
 4/5=5,16=3/1;
 5/5=2,38=5/2;
 7//1,2,3,16;
 1/18=20/3(-5);
 2/9=110/2;
 99/9=1/99;
 ------------
 opt of water
 ------------
 Symbolic Z-matrix:
 Charge =  0 Multiplicity = 1
 O
 H                    1    R2
 H                    1    R3       2    A1
       Variables:
  R2                    1.2                      
  R3                    1.2                      
  A1                  109.                       
 

 GradGradGradGradGradGradGradGradGradGradGradGradGradGradGradGradGradGrad
 Berny optimization.
 Initialization pass.
                           ----------------------------
                           !    Initial Parameters    !
                           ! (Angstroms and Degrees)  !
 --------------------------                            --------------------------
 ! Name  Definition              Value          Derivative Info.                !
 --------------------------------------------------------------------------------
 ! R1    R(1,2)                  1.2            estimate D2E/DX2                !
 ! R2    R(1,3)                  1.2            estimate D2E/DX2                !
 ! A1    A(2,1,3)              109.0            estimate D2E/DX2                !
 --------------------------------------------------------------------------------
 Trust Radius=3.00D-01 FncErr=1.00D-07 GrdErr=1.00D-07
 Number of steps in this run=  20 maximum allowed number of steps= 100.
 GradGradGradGradGradGradGradGradGradGradGradGradGradGradGradGradGradGrad

                          Input orientation:                          
 ---------------------------------------------------------------------
 Center     Atomic     Atomic              Coordinates (Angstroms)
 Number     Number      Type              X           Y           Z
 ---------------------------------------------------------------------
    1          8             0         .000000     .000000     .000000
    2          1             0         .000000     .000000    1.200000
    3          1             0        1.134622     .000000    -.390682
 ---------------------------------------------------------------------
                    Distance matrix (angstroms):
                    1          2          3
     1  O     .000000
     2  H    1.200000    .000000
     3  H    1.200000   1.953877    .000000
 Stoichiometry    H2O
 Framework group  C2V[C2(O),SGV(H2)]
 Deg. of freedom     2
 Full point group                 C2V     NOp   4
 Largest Abelian subgroup         C2V     NOp   4
 Largest concise Abelian subgroup C2      NOp   2
                         Standard orientation:                         
 ---------------------------------------------------------------------
 Center     Atomic     Atomic              Coordinates (Angstroms)
 Number     Number      Type              X           Y           Z
 ---------------------------------------------------------------------
    1          8             0         .000000     .000000     .139369
    2          1             0         .000000     .976939    -.557475
    3          1             0         .000000    -.976939    -.557475
 ---------------------------------------------------------------------
 Rotational constants (GHZ):    581.4025014    262.7044922    180.9451291
 Standard basis: 6-31+G(d) (6D, 7F)
 There are    12 symmetry adapted basis functions of A1  symmetry.
 There are     1 symmetry adapted basis functions of A2  symmetry.
 There are     4 symmetry adapted basis functions of B1  symmetry.
 There are     6 symmetry adapted basis functions of B2  symmetry.
 Integral buffers will be    131072 words long.
 Raffenetti 1 integral format.
 Two-electron integral symmetry is turned on.
    23 basis functions,    40 primitive gaussians,    23 cartesian basis functions
     5 alpha electrons        5 beta electrons
       nuclear repulsion energy         7.3265305297 Hartrees.
 NAtoms=    3 NActive=    3 NUniq=    2 SFac= 2.76D+00 NAtFMM=   60 Big=F
 One-electron integrals computed using PRISM.
 NBasis=    23 RedAO= T  NBF=    12     1     4     6
 NBsUse=    23 1.00D-06 NBFU=    12     1     4     6
 Harris functional with IExCor=  205 diagonalized for initial guess.
 ExpMin= 8.45D-02 ExpMax= 5.48D+03 ExpMxC= 8.25D+02 IAcc=2 IRadAn=         4 AccDes= 0.00D+00
 HarFok:  IExCor= 205 AccDes= 0.00D+00 IRadAn=         4 IDoV=1
 ScaDFX=  1.000000  1.000000  1.000000  1.000000
 Initial guess orbital symmetries:
       Occupied  (A1) (A1) (B2) (A1) (B1)
       Virtual   (A1) (B2) (A1) (B1) (B2) (A1) (B2) (A1) (B1) (A1)
                 (B2) (A1) (A2) (A1) (B1) (A1) (B2) (A1)
 The electronic state of the initial guess is 1-A1.
 Requested convergence on RMS density matrix=1.00D-08 within 128 cycles.
 Requested convergence on MAX density matrix=1.00D-06.
 Requested convergence on             energy=1.00D-06.
 No special actions if energy rises.
 Keep R1 integrals in memory in canonical form, NReq=      884429.
 SCF Done:  E(RHF) =  -75.9350166570     A.U. after   11 cycles
             Convg  =     .3882D-08             -V/T =  2.0112
             S**2   =    .0000
 ***** Axes restored to original set *****
 -------------------------------------------------------------------
 Center     Atomic                   Forces (Hartrees/Bohr)
 Number     Number              X              Y              Z
 -------------------------------------------------------------------
    1          8            .110200998     .000000000     .078605608
    2          1            .010640572     .000000000    -.131468387
    3          1           -.120841570     .000000000     .052862778
 -------------------------------------------------------------------
 Cartesian Forces:  Max      .131468387 RMS      .076824055

 GradGradGradGradGradGradGradGradGradGradGradGradGradGradGradGradGradGrad
 Berny optimization.
 Internal  Forces:  Max      .131468387 RMS      .108243702
 Search for a local minimum.
 Step number   1 out of a maximum of  20
 All quantities printed in internal units (Hartrees-Bohrs-Radians)
 Second derivative matrix not updated -- first step.
 The second derivative matrix:
                          R1        R2        A1
           R1            .24665
           R2            .00000    .24665
           A1            .00000    .00000    .16000
     Eigenvalues ---     .16000    .24665    .24665
 RFO step:  Lambda=-1.01512245D-01.
 Linear search not attempted -- first point.
 Maximum step size (    .300) exceeded in Quadratic search.
    -- Step size scaled by    .554
 Iteration  1 RMS(Cart)=   .16366800 RMS(Int)=   .00852717
 Iteration  2 RMS(Cart)=   .00612038 RMS(Int)=   .00001454
 Iteration  3 RMS(Cart)=   .00001762 RMS(Int)=   .00000000
 Iteration  4 RMS(Cart)=   .00000000 RMS(Int)=   .00000000
 Variable       Old X    -DE/DX   Delta X   Delta X   Delta X     New X
                                 (Linear)    (Quad)   (Total)
    R1        2.26767   -.13147    .00000   -.20903   -.20903   2.05864
    R2        2.26767   -.13147    .00000   -.20903   -.20903   2.05864
    A1        1.90241   -.02413    .00000   -.05108   -.05108   1.85133
         Item               Value     Threshold  Converged?
 Maximum Force             .131468      .000450     NO 
 RMS     Force             .108244      .000300     NO 
 Maximum Displacement      .179131      .001800     NO 
 RMS     Displacement      .168487      .001200     NO 
 Predicted change in Energy=-4.520905D-02
 GradGradGradGradGradGradGradGradGradGradGradGradGradGradGradGradGradGrad

                          Input orientation:                          
 ---------------------------------------------------------------------
 Center     Atomic     Atomic              Coordinates (Angstroms)
 Number     Number      Type              X           Y           Z
 ---------------------------------------------------------------------
    1          8             0         .022683     .000000     .016180
    2          1             0         .050502     .000000    1.105208
    3          1             0        1.061437     .000000    -.312070
 ---------------------------------------------------------------------
                    Distance matrix (angstroms):
                    1          2          3
     1  O     .000000
     2  H    1.089384    .000000
     3  H    1.089384   1.740881    .000000
 Stoichiometry    H2O
 Framework group  C2V[C2(O),SGV(H2)]
 Deg. of freedom     2
 Full point group                 C2V     NOp   4
 Largest Abelian subgroup         C2V     NOp   4
 Largest concise Abelian subgroup C2      NOp   2
                         Standard orientation:                         
 ---------------------------------------------------------------------
 Center     Atomic     Atomic              Coordinates (Angstroms)
 Number     Number      Type              X           Y           Z
 ---------------------------------------------------------------------
    1          8             0         .000000     .000000     .131010
    2          1             0         .000000     .870440    -.524040
    3          1             0         .000000    -.870440    -.524040
 ---------------------------------------------------------------------
 Rotational constants (GHZ):    657.9591451    330.9207380    220.1807617
 Standard basis: 6-31+G(d) (6D, 7F)
 There are    12 symmetry adapted basis functions of A1  symmetry.
 There are     1 symmetry adapted basis functions of A2  symmetry.
 There are     4 symmetry adapted basis functions of B1  symmetry.
 There are     6 symmetry adapted basis functions of B2  symmetry.
 Integral buffers will be    131072 words long.
 Raffenetti 1 integral format.
 Two-electron integral symmetry is turned on.
    23 basis functions,    40 primitive gaussians,    23 cartesian basis functions
     5 alpha electrons        5 beta electrons
       nuclear repulsion energy         8.0761050114 Hartrees.
 NAtoms=    3 NActive=    3 NUniq=    2 SFac= 2.76D+00 NAtFMM=   60 Big=F
 One-electron integrals computed using PRISM.
 NBasis=    23 RedAO= T  NBF=    12     1     4     6
 NBsUse=    23 1.00D-06 NBFU=    12     1     4     6
 Initial guess read from the read-write file:
 Initial guess orbital symmetries:
       Occupied  (A1) (A1) (B2) (A1) (B1)
       Virtual   (A1) (B2) (A1) (B1) (B2) (A1) (A1) (B2) (B1) (A1)
                 (B2) (A1) (A1) (A2) (B1) (A1) (B2) (A1)
 Harris functional with IExCor=  205 diagonalized for initial guess.
 ExpMin= 8.45D-02 ExpMax= 5.48D+03 ExpMxC= 8.25D+02 IAcc=2 IRadAn=         4 AccDes= 0.00D+00
 HarFok:  IExCor= 205 AccDes= 0.00D+00 IRadAn=         4 IDoV=1
 ScaDFX=  1.000000  1.000000  1.000000  1.000000
 Requested convergence on RMS density matrix=1.00D-08 within 128 cycles.
 Requested convergence on MAX density matrix=1.00D-06.
 Requested convergence on             energy=1.00D-06.
 No special actions if energy rises.
 Keep R1 integrals in memory in canonical form, NReq=      884429.
 SCF Done:  E(RHF) =  -75.9857839376     A.U. after   11 cycles
             Convg  =     .4096D-08             -V/T =  2.0088
             S**2   =    .0000
 ***** Axes restored to original set *****
 -------------------------------------------------------------------
 Center     Atomic                   Forces (Hartrees/Bohr)
 Number     Number              X              Y              Z
 -------------------------------------------------------------------
    1          8            .093427657     .000000000     .066641300
    2          1            .002466047     .000000000    -.102268293
    3          1           -.095893705     .000000000     .035626993
 -------------------------------------------------------------------
 Cartesian Forces:  Max      .102268293 RMS      .061553554

 GradGradGradGradGradGradGradGradGradGradGradGradGradGradGradGradGradGrad
 Berny optimization.
 Internal  Forces:  Max      .102171970 RMS      .083641003
 Search for a local minimum.
 Step number   2 out of a maximum of  20
 All quantities printed in internal units (Hartrees-Bohrs-Radians)
 Update second derivatives using D2CorX and points  1  2
 Trust test= 1.12D+00 RLast= 3.00D-01 DXMaxT set to 4.24D-01
 The second derivative matrix:
                          R1        R2        A1
           R1            .19196
           R2           -.05469    .19196
           A1            .01177    .01177    .17141
     Eigenvalues ---     .13050    .17819    .24665
 RFO step:  Lambda=-3.19374711D-03.
 Quartic linear search produced a step of  1.34596.
 Iteration  1 RMS(Cart)=   .12740470 RMS(Int)=   .09274384
 Iteration  2 RMS(Cart)=   .08385456 RMS(Int)=   .00026032
 Iteration  3 RMS(Cart)=   .00023415 RMS(Int)=   .00000004
 Iteration  4 RMS(Cart)=   .00000003 RMS(Int)=   .00000000
 Variable       Old X    -DE/DX   Delta X   Delta X   Delta X     New X
                                 (Linear)    (Quad)   (Total)
    R1        2.05864   -.10217   -.28135   -.03088   -.31223   1.74641
    R2        2.05864   -.10217   -.28135   -.03088   -.31223   1.74641
    A1        1.85133   -.01045   -.06875    .13368    .06493   1.91626
         Item               Value     Threshold  Converged?
 Maximum Force             .102172      .000450     NO 
 RMS     Force             .083641      .000300     NO 
 Maximum Displacement      .221166      .001800     NO 
 RMS     Displacement      .208004      .001200     NO 
 Predicted change in Energy=-4.985700D-02
 GradGradGradGradGradGradGradGradGradGradGradGradGradGradGradGradGradGrad

                          Input orientation:                          
 ---------------------------------------------------------------------
 Center     Atomic     Atomic              Coordinates (Angstroms)
 Number     Number      Type              X           Y           Z
 ---------------------------------------------------------------------
    1          8             0         .089773     .000000     .064034
    2          1             0         .083371     .000000     .988172
    3          1             0         .961478     .000000    -.242888
 ---------------------------------------------------------------------
                    Distance matrix (angstroms):
                    1          2          3
     1  O     .000000
     2  H     .924160    .000000
     3  H     .924160   1.512145    .000000
 Stoichiometry    H2O
 Framework group  C2V[C2(O),SGV(H2)]
 Deg. of freedom     2
 Full point group                 C2V     NOp   4
 Largest Abelian subgroup         C2V     NOp   4
 Largest concise Abelian subgroup C2      NOp   2
                         Standard orientation:                         
 ---------------------------------------------------------------------
 Center     Atomic     Atomic              Coordinates (Angstroms)
 Number     Number      Type              X           Y           Z
 ---------------------------------------------------------------------
    1          8             0         .000000     .000000     .106288
    2          1             0         .000000     .756072    -.425150
    3          1             0         .000000    -.756072    -.425150
 ---------------------------------------------------------------------
 Rotational constants (GHZ):    999.6383085    438.6067856    304.8493939
 Standard basis: 6-31+G(d) (6D, 7F)
 There are    12 symmetry adapted basis functions of A1  symmetry.
 There are     1 symmetry adapted basis functions of A2  symmetry.
 There are     4 symmetry adapted basis functions of B1  symmetry.
 There are     6 symmetry adapted basis functions of B2  symmetry.
 Integral buffers will be    131072 words long.
 Raffenetti 1 integral format.
 Two-electron integral symmetry is turned on.
    23 basis functions,    40 primitive gaussians,    23 cartesian basis functions
     5 alpha electrons        5 beta electrons
       nuclear repulsion energy         9.5116087210 Hartrees.
 NAtoms=    3 NActive=    3 NUniq=    2 SFac= 2.76D+00 NAtFMM=   60 Big=F
 One-electron integrals computed using PRISM.
 NBasis=    23 RedAO= T  NBF=    12     1     4     6
 NBsUse=    23 1.00D-06 NBFU=    12     1     4     6
 Initial guess read from the read-write file:
 Initial guess orbital symmetries:
       Occupied  (A1) (A1) (B2) (A1) (B1)
       Virtual   (A1) (B2) (A1) (B1) (B2) (A1) (B2) (A1) (B1) (A1)
                 (B2) (A1) (A1) (A2) (B1) (A1) (B2) (A1)
 Harris functional with IExCor=  205 diagonalized for initial guess.
 ExpMin= 8.45D-02 ExpMax= 5.48D+03 ExpMxC= 8.25D+02 IAcc=2 IRadAn=         4 AccDes= 0.00D+00
 HarFok:  IExCor= 205 AccDes= 0.00D+00 IRadAn=         4 IDoV=1
 ScaDFX=  1.000000  1.000000  1.000000  1.000000
 Requested convergence on RMS density matrix=1.00D-08 within 128 cycles.
 Requested convergence on MAX density matrix=1.00D-06.
 Requested convergence on             energy=1.00D-06.
 No special actions if energy rises.
 Keep R1 integrals in memory in canonical form, NReq=      884429.
 SCF Done:  E(RHF) =  -76.0163229474     A.U. after   10 cycles
             Convg  =     .8065D-08             -V/T =  2.0017
             S**2   =    .0000
 ***** Axes restored to original set *****
 -------------------------------------------------------------------
 Center     Atomic                   Forces (Hartrees/Bohr)
 Number     Number              X              Y              Z
 -------------------------------------------------------------------
    1          8           -.031972733     .000000000    -.022805928
    2          1            .004391487     .000000000     .027658386
    3          1            .027581246     .000000000    -.004852458
 -------------------------------------------------------------------
 Cartesian Forces:  Max      .031972733 RMS      .018591841

 GradGradGradGradGradGradGradGradGradGradGradGradGradGradGradGradGradGrad
 Berny optimization.
 Internal  Forces:  Max      .027627302 RMS      .023026041
 Search for a local minimum.
 Step number   3 out of a maximum of  20
 All quantities printed in internal units (Hartrees-Bohrs-Radians)
 Update second derivatives using D2CorX and points  2  3
 Trust test= 6.13D-01 RLast= 4.46D-01 DXMaxT set to 4.24D-01
 The second derivative matrix:
                          R1        R2        A1
           R1            .33344
           R2            .08679    .33344
           A1            .02170    .02170    .17095
     Eigenvalues ---     .16723    .24665    .42395
 RFO step:  Lambda=-2.34432566D-04.
 Quartic linear search produced a step of  -.14307.
 Iteration  1 RMS(Cart)=   .02993880 RMS(Int)=   .00077357
 Iteration  2 RMS(Cart)=   .00085407 RMS(Int)=   .00000030
 Iteration  3 RMS(Cart)=   .00000021 RMS(Int)=   .00000000
 Variable       Old X    -DE/DX   Delta X   Delta X   Delta X     New X
                                 (Linear)    (Quad)   (Total)
    R1        1.74641    .02763    .04467    .00035    .04502   1.79143
    R2        1.74641    .02763    .04467    .00035    .04502   1.79143
    A1        1.91626   -.00800   -.00929   -.03709   -.04638   1.86989
         Item               Value     Threshold  Converged?
 Maximum Force             .027627      .000450     NO 
 RMS     Force             .023026      .000300     NO 
 Maximum Displacement      .032344      .001800     NO 
 RMS     Displacement      .029903      .001200     NO 
 Predicted change in Energy=-1.913757D-03
 GradGradGradGradGradGradGradGradGradGradGradGradGradGradGradGradGradGrad

                          Input orientation:                          
 ---------------------------------------------------------------------
 Center     Atomic     Atomic              Coordinates (Angstroms)
 Number     Number      Type              X           Y           Z
 ---------------------------------------------------------------------
    1          8             0         .072657     .000000     .051826
    2          1             0         .088072     .000000     .999683
    3          1             0         .973893     .000000    -.242191
 ---------------------------------------------------------------------
                    Distance matrix (angstroms):
                    1          2          3
     1  O     .000000
     2  H     .947983    .000000
     3  H     .947983   1.525428    .000000
 Stoichiometry    H2O
 Framework group  C2V[C2(O),SGV(H2)]
 Deg. of freedom     2
 Full point group                 C2V     NOp   4
 Largest Abelian subgroup         C2V     NOp   4
 Largest concise Abelian subgroup C2      NOp   2
                         Standard orientation:                         
 ---------------------------------------------------------------------
 Center     Atomic     Atomic              Coordinates (Angstroms)
 Number     Number      Type              X           Y           Z
 ---------------------------------------------------------------------
    1          8             0         .000000     .000000     .112595
    2          1             0         .000000     .762714    -.450378
    3          1             0         .000000    -.762714    -.450378
 ---------------------------------------------------------------------
 Rotational constants (GHZ):    890.7841508    431.0013073    290.4625189
 Standard basis: 6-31+G(d) (6D, 7F)
 There are    12 symmetry adapted basis functions of A1  symmetry.
 There are     1 symmetry adapted basis functions of A2  symmetry.
 There are     4 symmetry adapted basis functions of B1  symmetry.
 There are     6 symmetry adapted basis functions of B2  symmetry.
 Integral buffers will be    131072 words long.
 Raffenetti 1 integral format.
 Two-electron integral symmetry is turned on.
    23 basis functions,    40 primitive gaussians,    23 cartesian basis functions
     5 alpha electrons        5 beta electrons
       nuclear repulsion energy         9.2783280704 Hartrees.
 NAtoms=    3 NActive=    3 NUniq=    2 SFac= 2.76D+00 NAtFMM=   60 Big=F
 One-electron integrals computed using PRISM.
 NBasis=    23 RedAO= T  NBF=    12     1     4     6
 NBsUse=    23 1.00D-06 NBFU=    12     1     4     6
 Initial guess read from the read-write file:
 Initial guess orbital symmetries:
       Occupied  (A1) (A1) (B2) (A1) (B1)
       Virtual   (A1) (B2) (A1) (B1) (B2) (A1) (B2) (A1) (B2) (A1)
                 (B1) (A1) (A2) (A1) (B1) (A1) (B2) (A1)
 Harris functional with IExCor=  205 diagonalized for initial guess.
 ExpMin= 8.45D-02 ExpMax= 5.48D+03 ExpMxC= 8.25D+02 IAcc=2 IRadAn=         4 AccDes= 0.00D+00
 HarFok:  IExCor= 205 AccDes= 0.00D+00 IRadAn=         4 IDoV=1
 ScaDFX=  1.000000  1.000000  1.000000  1.000000
 Requested convergence on RMS density matrix=1.00D-08 within 128 cycles.
 Requested convergence on MAX density matrix=1.00D-06.
 Requested convergence on             energy=1.00D-06.
 No special actions if energy rises.
 Keep R1 integrals in memory in canonical form, NReq=      884429.
 SCF Done:  E(RHF) =  -76.0177318472     A.U. after    9 cycles
             Convg  =     .7719D-08             -V/T =  2.0030
             S**2   =    .0000
 ***** Axes restored to original set *****
 -------------------------------------------------------------------
 Center     Atomic                   Forces (Hartrees/Bohr)
 Number     Number              X              Y              Z
 -------------------------------------------------------------------
    1          8           -.000771563     .000000000    -.000550350
    2          1            .001110103     .000000000    -.000740286
    3          1           -.000338540     .000000000     .001290636
 -------------------------------------------------------------------
 Cartesian Forces:  Max      .001290636 RMS      .000703870

 GradGradGradGradGradGradGradGradGradGradGradGradGradGradGradGradGradGrad
 Berny optimization.
 Internal  Forces:  Max      .002009970 RMS      .001301658
 Search for a local minimum.
 Step number   4 out of a maximum of  20
 All quantities printed in internal units (Hartrees-Bohrs-Radians)
 Update second derivatives using D2CorX and points  2  3  4
 Trust test= 7.36D-01 RLast= 7.88D-02 DXMaxT set to 4.24D-01
 The second derivative matrix:
                          R1        R2        A1
           R1            .44718
           R2            .20053    .44718
           A1            .01746    .01746    .16314
     Eigenvalues ---     .16188    .24665    .64897
 RFO step:  Lambda=-2.55917253D-05.
 Quartic linear search produced a step of   .01075.
 Iteration  1 RMS(Cart)=   .00703670 RMS(Int)=   .00002763
 Iteration  2 RMS(Cart)=   .00002303 RMS(Int)=   .00000000
 Iteration  3 RMS(Cart)=   .00000000 RMS(Int)=   .00000000
 Variable       Old X    -DE/DX   Delta X   Delta X   Delta X     New X
                                 (Linear)    (Quad)   (Total)
    R1        1.79143   -.00072    .00048   -.00124   -.00076   1.79067
    R2        1.79143   -.00072    .00048   -.00124   -.00076   1.79067
    A1        1.86989   -.00201   -.00050   -.01176   -.01226   1.85763
         Item               Value     Threshold  Converged?
 Maximum Force             .002010      .000450     NO 
 RMS     Force             .001302      .000300     NO 
 Maximum Displacement      .007444      .001800     NO 
 RMS     Displacement      .007047      .001200     NO 
 Predicted change in Energy=-1.278012D-05
 GradGradGradGradGradGradGradGradGradGradGradGradGradGradGradGradGradGrad

                          Input orientation:                          
 ---------------------------------------------------------------------
 Center     Atomic     Atomic              Coordinates (Angstroms)
 Number     Number      Type              X           Y           Z
 ---------------------------------------------------------------------
    1          8             0         .070257     .000000     .050114
    2          1             0         .091472     .000000     .997457
    3          1             0         .972894     .000000    -.238252
 ---------------------------------------------------------------------
                    Distance matrix (angstroms):
                    1          2          3
     1  O     .000000
     2  H     .947581    .000000
     3  H     .947581   1.517855    .000000
 Stoichiometry    H2O
 Framework group  C2V[C2(O),SGV(H2)]
 Deg. of freedom     2
 Full point group                 C2V     NOp   4
 Largest Abelian subgroup         C2V     NOp   4
 Largest concise Abelian subgroup C2      NOp   2
                         Standard orientation:                         
 ---------------------------------------------------------------------
 Center     Atomic     Atomic              Coordinates (Angstroms)
 Number     Number      Type              X           Y           Z
 ---------------------------------------------------------------------
    1          8             0         .000000     .000000     .113479
    2          1             0         .000000     .758927    -.453917
    3          1             0         .000000    -.758927    -.453917
 ---------------------------------------------------------------------
 Rotational constants (GHZ):    876.9489213    435.3130901    290.9078686
 Standard basis: 6-31+G(d) (6D, 7F)
 There are    12 symmetry adapted basis functions of A1  symmetry.
 There are     1 symmetry adapted basis functions of A2  symmetry.
 There are     4 symmetry adapted basis functions of B1  symmetry.
 There are     6 symmetry adapted basis functions of B2  symmetry.
 Integral buffers will be    131072 words long.
 Raffenetti 1 integral format.
 Two-electron integral symmetry is turned on.
    23 basis functions,    40 primitive gaussians,    23 cartesian basis functions
     5 alpha electrons        5 beta electrons
       nuclear repulsion energy         9.2838473318 Hartrees.
 NAtoms=    3 NActive=    3 NUniq=    2 SFac= 2.76D+00 NAtFMM=   60 Big=F
 One-electron integrals computed using PRISM.
 NBasis=    23 RedAO= T  NBF=    12     1     4     6
 NBsUse=    23 1.00D-06 NBFU=    12     1     4     6
 Initial guess read from the read-write file:
 Initial guess orbital symmetries:
       Occupied  (A1) (A1) (B2) (A1) (B1)
       Virtual   (A1) (B2) (A1) (B1) (B2) (A1) (B2) (A1) (B2) (B1)
                 (A1) (A1) (A1) (A2) (B1) (A1) (B2) (A1)
 Requested convergence on RMS density matrix=1.00D-08 within 128 cycles.
 Requested convergence on MAX density matrix=1.00D-06.
 Requested convergence on             energy=1.00D-06.
 No special actions if energy rises.
 Keep R1 integrals in memory in canonical form, NReq=      884429.
 SCF Done:  E(RHF) =  -76.0177429518     A.U. after    8 cycles
             Convg  =     .4729D-08             -V/T =  2.0030
             S**2   =    .0000
 ***** Axes restored to original set *****
 -------------------------------------------------------------------
 Center     Atomic                   Forces (Hartrees/Bohr)
 Number     Number              X              Y              Z
 -------------------------------------------------------------------
    1          8            .000151179     .000000000     .000107835
    2          1           -.000158076     .000000000     .000061725
    3          1            .000006898     .000000000    -.000169560
 -------------------------------------------------------------------
 Cartesian Forces:  Max      .000169560 RMS      .000101149

 GradGradGradGradGradGradGradGradGradGradGradGradGradGradGradGradGradGrad
 Berny optimization.
 Internal  Forces:  Max      .000285466 RMS      .000171521
 Search for a local minimum.
 Step number   5 out of a maximum of  20
 All quantities printed in internal units (Hartrees-Bohrs-Radians)
 Update second derivatives using D2CorX and points  2  3  4  5
 Trust test= 8.69D-01 RLast= 1.23D-02 DXMaxT set to 4.24D-01
 The second derivative matrix:
                          R1        R2        A1
           R1            .44717
           R2            .20051    .44717
           A1            .02352    .02352    .18434
     Eigenvalues ---     .18196    .24665    .65006
 RFO step:  Lambda= 0.00000000D+00.
 Quartic linear search produced a step of  -.12168.
 Iteration  1 RMS(Cart)=   .00085889 RMS(Int)=   .00000043
 Iteration  2 RMS(Cart)=   .00000037 RMS(Int)=   .00000000
 Variable       Old X    -DE/DX   Delta X   Delta X   Delta X     New X
                                 (Linear)    (Quad)   (Total)
    R1        1.79067    .00006    .00009   -.00006    .00003   1.79070
    R2        1.79067    .00006    .00009   -.00006    .00003   1.79070
    A1        1.85763    .00029    .00149    .00004    .00153   1.85916
         Item               Value     Threshold  Converged?
 Maximum Force             .000285      .000450     YES
 RMS     Force             .000172      .000300     YES
 Maximum Displacement      .000899      .001800     YES
 RMS     Displacement      .000859      .001200     YES
 Predicted change in Energy=-2.217620D-07
 Optimization completed.
    -- Stationary point found.
                           ----------------------------
                           !   Optimized Parameters   !
                           ! (Angstroms and Degrees)  !
 --------------------------                            --------------------------
 ! Name  Definition              Value          Derivative Info.                !
 --------------------------------------------------------------------------------
 ! R1    R(1,2)                  0.9476         -DE/DX =    0.0001              !
 ! R2    R(1,3)                  0.9476         -DE/DX =    0.0001              !
 ! A1    A(2,1,3)              106.4343         -DE/DX =    0.0003              !
 --------------------------------------------------------------------------------
 GradGradGradGradGradGradGradGradGradGradGradGradGradGradGradGradGradGrad

                          Input orientation:                          
 ---------------------------------------------------------------------
 Center     Atomic     Atomic              Coordinates (Angstroms)
 Number     Number      Type              X           Y           Z
 ---------------------------------------------------------------------
    1          8             0         .070257     .000000     .050114
    2          1             0         .091472     .000000     .997457
    3          1             0         .972894     .000000    -.238252
 ---------------------------------------------------------------------
                    Distance matrix (angstroms):
                    1          2          3
     1  O     .000000
     2  H     .947581    .000000
     3  H     .947581   1.517855    .000000
 Stoichiometry    H2O
 Framework group  C2V[C2(O),SGV(H2)]
 Deg. of freedom     2
 Full point group                 C2V     NOp   4
 Largest Abelian subgroup         C2V     NOp   4
 Largest concise Abelian subgroup C2      NOp   2
                         Standard orientation:                         
 ---------------------------------------------------------------------
 Center     Atomic     Atomic              Coordinates (Angstroms)
 Number     Number      Type              X           Y           Z
 ---------------------------------------------------------------------
    1          8             0         .000000     .000000     .113479
    2          1             0         .000000     .758927    -.453917
    3          1             0         .000000    -.758927    -.453917
 ---------------------------------------------------------------------
 Rotational constants (GHZ):    876.9489213    435.3130901    290.9078686
 Final structure in terms of initial Z-matrix:
 O
 H,1,R2
 H,1,R3,2,A1
      Variables:
 R2=0.94758076
 R3=0.94758076
 A1=106.43425346
 1\1\ HLRN-BERNI1-EN0\FOpt\RHF\6-31+G(d)\H2O1\BECLSAAM\24-Oct-2005\0\\#
  HF/6-31+G* OPT POP=NONE\\opt of water\\0,1\O,-0.092385244,0.,-0.06589
 77541\H,-0.07117034,0.,0.8814454945\H,0.8102522922,0.,-0.3542634614\\V
 ersion=IBM64-RS6000-G03RevB.05\HF=-76.017743\RMSD=4.729e-09\RMSF=1.011
 e-04\Dipole=-0.4253286,-0.7324375,-0.303384\PG=C02V [C2(O1),SGV(H2)]\\
 @


 IN NATURE THERE ARE NEITHER REWARDS OR
 PUNISHMENTS -- THERE ARE CONSEQUENCES.

                            -- ROBERT GREEN INGERSOLL
 Job cpu time:  0 days  0 hours  0 minutes  7.1 seconds.
 File lengths (MBytes):  RWF=     34 Int=      0 D2E=      0 Chk=     10 Scr=      1
 Normal termination of Gaussian 03 at Mon Oct 24 22:40:08 2005.
