 Entering Gaussian System, Link 0=/aws/chem/g03b05_fnj_080504/g03/g03
 Initial command:
 /aws/chem/g03b05_fnj_080504/g03/l1.exe /fastfs/tmp/beclsaam/dialog.tmpdir.berni1.2330770/Gau-1912950.inp -scrdir=/fastfs/tmp/beclsaam/dialog.tmpdir.berni1.2330770/
 Entering Link 1 = /aws/chem/g03b05_fnj_080504/g03/l1.exe PID=   1966224.
  
 Copyright (c) 1988,1990,1992,1993,1995,1998,2003, Gaussian, Inc.
                  All Rights Reserved.
  
 This is the Gaussian(R) 03 program.  It is based on the
 the Gaussian(R) 98 system (copyright 1998, Gaussian, Inc.),
 the Gaussian(R) 94 system (copyright 1995, Gaussian, Inc.),
 the Gaussian 92(TM) system (copyright 1992, Gaussian, Inc.),
 the Gaussian 90(TM) system (copyright 1990, Gaussian, Inc.),
 the Gaussian 88(TM) system (copyright 1988, Gaussian, Inc.),
 the Gaussian 86(TM) system (copyright 1986, Carnegie Mellon
 University), and the Gaussian 82(TM) system (copyright 1983,
 Carnegie Mellon University). Gaussian is a federally registered
 trademark of Gaussian, Inc.
  
 This software contains proprietary and confidential information,
 including trade secrets, belonging to Gaussian, Inc.
  
 This software is provided under written license and may be
 used, copied, transmitted, or stored only in accord with that
 written license.
  
 The following legend is applicable only to US Government
 contracts under DFARS:
  
                    RESTRICTED RIGHTS LEGEND
  
 Use, duplication or disclosure by the US Government is subject
 to restrictions as set forth in subparagraph (c)(1)(ii) of the
 Rights in Technical Data and Computer Software clause at DFARS
 252.227-7013.
  
 Gaussian, Inc.
 Carnegie Office Park, Building 6, Pittsburgh, PA 15106 USA
  
 The following legend is applicable only to US Government
 contracts under FAR:
  
                    RESTRICTED RIGHTS LEGEND
  
 Use, reproduction and disclosure by the US Government is subject
 to restrictions as set forth in subparagraph (c) of the
 Commercial Computer Software - Restricted Rights clause at FAR
 52.227-19.
  
 Gaussian, Inc.
 Carnegie Office Park, Building 6, Pittsburgh, PA 15106 USA
  
  
 ---------------------------------------------------------------
 Warning -- This program may not be used in any manner that
 competes with the business of Gaussian, Inc. or will provide
 assistance to any competitor of Gaussian, Inc.  The licensee
 of this program is prohibited from giving any competitor of
 Gaussian, Inc. access to this program.  By using this program,
 the user acknowledges that Gaussian, Inc. is engaged in the
 business of creating and licensing software in the field of
 computational chemistry and represents and warrants to the
 licensee that it is not a competitor of Gaussian, Inc. and that
 it will not use this program in any manner prohibited above.
 ---------------------------------------------------------------
  

 Cite this work as:
 Gaussian 03, Revision B.05,
 M. J. Frisch, G. W. Trucks, H. B. Schlegel, G. E. Scuseria, 
 M. A. Robb, J. R. Cheeseman, J. A. Montgomery, Jr., T. Vreven, 
 K. N. Kudin, J. C. Burant, J. M. Millam, S. S. Iyengar, J. Tomasi, 
 V. Barone, B. Mennucci, M. Cossi, G. Scalmani, N. Rega, 
 G. A. Petersson, H. Nakatsuji, M. Hada, M. Ehara, K. Toyota, 
 R. Fukuda, J. Hasegawa, M. Ishida, T. Nakajima, Y. Honda, O. Kitao, 
 H. Nakai, M. Klene, X. Li, J. E. Knox, H. P. Hratchian, J. B. Cross, 
 C. Adamo, J. Jaramillo, R. Gomperts, R. E. Stratmann, O. Yazyev, 
 A. J. Austin, R. Cammi, C. Pomelli, J. W. Ochterski, P. Y. Ayala, 
 K. Morokuma, G. A. Voth, P. Salvador, J. J. Dannenberg, 
 V. G. Zakrzewski, S. Dapprich, A. D. Daniels, M. C. Strain, 
 O. Farkas, D. K. Malick, A. D. Rabuck, K. Raghavachari, 
 J. B. Foresman, J. V. Ortiz, Q. Cui, A. G. Baboul, S. Clifford, 
 J. Cioslowski, B. B. Stefanov, G. Liu, A. Liashenko, P. Piskorz, 
 I. Komaromi, R. L. Martin, D. J. Fox, T. Keith, M. A. Al-Laham, 
 C. Y. Peng, A. Nanayakkara, M. Challacombe, P. M. W. Gill, 
 B. Johnson, W. Chen, M. W. Wong, C. Gonzalez, and J. A. Pople, 
 Gaussian, Inc., Pittsburgh PA, 2003.
 
 *************************************************
 Gaussian 03:  IBM64-RS6000-G03RevB.05  8-Nov-2003
                    24-Oct-2005 
 *************************************************
 %chk=water_ub3lyp631gpd.chk
 -----------------------------------
 # UB3LYP/6-31+G* 5D 7F opt pop=none
 -----------------------------------
 1/14=-1,18=20,26=3,38=1/1,3;
 2/9=110,17=6,18=5,40=1/2;
 3/5=1,6=6,7=11,8=11,11=2,16=1,25=1,30=1,74=-5/1,2,3;
 4/7=2/1;
 5/5=2,38=5/2;
 7//1,2,3,16;
 1/14=-1,18=20/3(1);
 99//99;
 2/9=110/2;
 3/5=1,6=6,7=11,8=11,11=2,16=1,25=1,30=1,74=-5/1,2,3;
 4/5=5,7=2,16=3/1;
 5/5=2,38=5/2;
 7//1,2,3,16;
 1/14=-1,18=20/3(-5);
 2/9=110/2;
 99/9=1/99;
 ------------
 opt of water
 ------------
 Symbolic Z-matrix:
 Charge =  0 Multiplicity = 1
 O
 H                    1    R2
 H                    1    R3       2    A1
       Variables:
  R2                    1.2                      
  R3                    1.2                      
  A1                  109.                       
 

 GradGradGradGradGradGradGradGradGradGradGradGradGradGradGradGradGradGrad
 Berny optimization.
 Initialization pass.
                           ----------------------------
                           !    Initial Parameters    !
                           ! (Angstroms and Degrees)  !
 --------------------------                            --------------------------
 ! Name  Definition              Value          Derivative Info.                !
 --------------------------------------------------------------------------------
 ! R1    R(1,2)                  1.2            estimate D2E/DX2                !
 ! R2    R(1,3)                  1.2            estimate D2E/DX2                !
 ! A1    A(2,1,3)              109.0            estimate D2E/DX2                !
 --------------------------------------------------------------------------------
 Trust Radius=3.00D-01 FncErr=1.00D-07 GrdErr=1.00D-06
 Number of steps in this run=  20 maximum allowed number of steps= 100.
 GradGradGradGradGradGradGradGradGradGradGradGradGradGradGradGradGradGrad

                          Input orientation:                          
 ---------------------------------------------------------------------
 Center     Atomic     Atomic              Coordinates (Angstroms)
 Number     Number      Type              X           Y           Z
 ---------------------------------------------------------------------
    1          8             0         .000000     .000000     .000000
    2          1             0         .000000     .000000    1.200000
    3          1             0        1.134622     .000000    -.390682
 ---------------------------------------------------------------------
                    Distance matrix (angstroms):
                    1          2          3
     1  O     .000000
     2  H    1.200000    .000000
     3  H    1.200000   1.953877    .000000
 Stoichiometry    H2O
 Framework group  C2V[C2(O),SGV(H2)]
 Deg. of freedom     2
 Full point group                 C2V     NOp   4
 Largest Abelian subgroup         C2V     NOp   4
 Largest concise Abelian subgroup C2      NOp   2
                         Standard orientation:                         
 ---------------------------------------------------------------------
 Center     Atomic     Atomic              Coordinates (Angstroms)
 Number     Number      Type              X           Y           Z
 ---------------------------------------------------------------------
    1          8             0         .000000     .000000     .139369
    2          1             0         .000000     .976939    -.557475
    3          1             0         .000000    -.976939    -.557475
 ---------------------------------------------------------------------
 Rotational constants (GHZ):    581.4025014    262.7044922    180.9451291
 Standard basis: 6-31+G(d) (5D, 7F)
 There are    11 symmetry adapted basis functions of A1  symmetry.
 There are     1 symmetry adapted basis functions of A2  symmetry.
 There are     4 symmetry adapted basis functions of B1  symmetry.
 There are     6 symmetry adapted basis functions of B2  symmetry.
 Integral buffers will be    131072 words long.
 Raffenetti 2 integral format.
 Two-electron integral symmetry is turned on.
    22 basis functions,    40 primitive gaussians,    23 cartesian basis functions
     5 alpha electrons        5 beta electrons
       nuclear repulsion energy         7.3265305297 Hartrees.
 NAtoms=    3 NActive=    3 NUniq=    2 SFac= 2.76D+00 NAtFMM=   60 Big=F
 One-electron integrals computed using PRISM.
 NBasis=    22 RedAO= T  NBF=    11     1     4     6
 NBsUse=    22 1.00D-06 NBFU=    11     1     4     6
 Harris functional with IExCor=  402 diagonalized for initial guess.
 ExpMin= 8.45D-02 ExpMax= 5.48D+03 ExpMxC= 8.25D+02 IAcc=2 IRadAn=         4 AccDes= 0.00D+00
 HarFok:  IExCor= 402 AccDes= 0.00D+00 IRadAn=         4 IDoV=1
 ScaDFX=  1.000000  1.000000  1.000000  1.000000
 Initial guess orbital symmetries:
 Alpha Orbitals:
       Occupied  (A1) (A1) (B2) (A1) (B1)
       Virtual   (A1) (B2) (A1) (B1) (B2) (A1) (B2) (A1) (B1) (A1)
                 (B2) (A1) (A2) (A1) (B1) (A1) (B2)
 Beta  Orbitals:
       Occupied  (A1) (A1) (B2) (A1) (B1)
       Virtual   (A1) (B2) (A1) (B1) (B2) (A1) (B2) (A1) (B1) (A1)
                 (B2) (A1) (A2) (A1) (B1) (A1) (B2)
 The electronic state of the initial guess is 1-A1.
 <S**2> of initial guess=  .0000
 Requested convergence on RMS density matrix=1.00D-08 within 128 cycles.
 Requested convergence on MAX density matrix=1.00D-06.
 Requested convergence on             energy=1.00D-06.
 No special actions if energy rises.
 Keep R1 and R2 integrals in memory in canonical form, NReq=      947626.
 Integral accuracy reduced to 1.0D-05 until final iterations.
 Initial convergence to 1.0D-05 achieved.  Increase integral accuracy.
 SCF Done:  E(UB+HF-LYP) =  -76.3609042113     A.U. after   10 cycles
             Convg  =     .5860D-08             -V/T =  2.0131
             S**2   =    .0000
 Annihilation of the first spin contaminant:
 S**2 before annihilation      .0000,   after      .0000
 ***** Axes restored to original set *****
 -------------------------------------------------------------------
 Center     Atomic                   Forces (Hartrees/Bohr)
 Number     Number              X              Y              Z
 -------------------------------------------------------------------
    1          8            .084165401     .000000000     .060034597
    2          1            .011586439     .000000000    -.105258657
    3          1           -.095751840     .000000000     .045224060
 -------------------------------------------------------------------
 Cartesian Forces:  Max      .105258657 RMS      .060658633

 GradGradGradGradGradGradGradGradGradGradGradGradGradGradGradGradGradGrad
 Berny optimization.
 Internal  Forces:  Max      .105258657 RMS      .087271808
 Search for a local minimum.
 Step number   1 out of a maximum of  20
 All quantities printed in internal units (Hartrees-Bohrs-Radians)
 Second derivative matrix not updated -- first step.
 The second derivative matrix:
                          R1        R2        A1
           R1            .24665
           R2            .00000    .24665
           A1            .00000    .00000    .16000
     Eigenvalues ---     .16000    .24665    .24665
 RFO step:  Lambda=-7.24180337D-02.
 Linear search not attempted -- first point.
 Maximum step size (    .300) exceeded in Quadratic search.
    -- Step size scaled by    .625
 Iteration  1 RMS(Cart)=   .17260305 RMS(Int)=   .00742235
 Iteration  2 RMS(Cart)=   .00506575 RMS(Int)=   .00001764
 Iteration  3 RMS(Cart)=   .00002174 RMS(Int)=   .00000000
 Iteration  4 RMS(Cart)=   .00000000 RMS(Int)=   .00000000
 Variable       Old X    -DE/DX   Delta X   Delta X   Delta X     New X
                                 (Linear)    (Quad)   (Total)
    R1        2.26767   -.10526    .00000   -.20617   -.20617   2.06151
    R2        2.26767   -.10526    .00000   -.20617   -.20617   2.06151
    A1        1.90241   -.02627    .00000   -.07065   -.07065   1.83176
         Item               Value     Threshold  Converged?
 Maximum Force             .105259      .000450     NO 
 RMS     Force             .087272      .000300     NO 
 Maximum Displacement      .183761      .001800     NO 
 RMS     Displacement      .174815      .001200     NO 
 Predicted change in Energy=-3.437461D-02
 GradGradGradGradGradGradGradGradGradGradGradGradGradGradGradGradGradGrad

                          Input orientation:                          
 ---------------------------------------------------------------------
 Center     Atomic     Atomic              Coordinates (Angstroms)
 Number     Number      Type              X           Y           Z
 ---------------------------------------------------------------------
    1          8             0         .017576     .000000     .012537
    2          1             0         .056103     .000000    1.102758
    3          1             0        1.060943     .000000    -.305976
 ---------------------------------------------------------------------
                    Distance matrix (angstroms):
                    1          2          3
     1  O     .000000
     2  H    1.090902    .000000
     3  H    1.090902   1.730386    .000000
 Stoichiometry    H2O
 Framework group  C2V[C2(O),SGV(H2)]
 Deg. of freedom     2
 Full point group                 C2V     NOp   4
 Largest Abelian subgroup         C2V     NOp   4
 Largest concise Abelian subgroup C2      NOp   2
                         Standard orientation:                         
 ---------------------------------------------------------------------
 Center     Atomic     Atomic              Coordinates (Angstroms)
 Number     Number      Type              X           Y           Z
 ---------------------------------------------------------------------
    1          8             0         .000000     .000000     .132892
    2          1             0         .000000     .865193    -.531568
    3          1             0         .000000    -.865193    -.531568
 ---------------------------------------------------------------------
 Rotational constants (GHZ):    639.4536273    334.9470503    219.8100958
 Standard basis: 6-31+G(d) (5D, 7F)
 There are    11 symmetry adapted basis functions of A1  symmetry.
 There are     1 symmetry adapted basis functions of A2  symmetry.
 There are     4 symmetry adapted basis functions of B1  symmetry.
 There are     6 symmetry adapted basis functions of B2  symmetry.
 Integral buffers will be    131072 words long.
 Raffenetti 2 integral format.
 Two-electron integral symmetry is turned on.
    22 basis functions,    40 primitive gaussians,    23 cartesian basis functions
     5 alpha electrons        5 beta electrons
       nuclear repulsion energy         8.0671326489 Hartrees.
 NAtoms=    3 NActive=    3 NUniq=    2 SFac= 2.76D+00 NAtFMM=   60 Big=F
 One-electron integrals computed using PRISM.
 NBasis=    22 RedAO= T  NBF=    11     1     4     6
 NBsUse=    22 1.00D-06 NBFU=    11     1     4     6
 Initial guess read from the read-write file:
 Initial guess orbital symmetries:
 Alpha Orbitals:
       Occupied  (A1) (A1) (B2) (A1) (B1)
       Virtual   (A1) (B2) (A1) (B1) (B2) (A1) (B2) (A1) (B1) (A1)
                 (B2) (A1) (A1) (A2) (B1) (A1) (B2)
 Beta  Orbitals:
       Occupied  (A1) (A1) (B2) (A1) (B1)
       Virtual   (A1) (B2) (A1) (B1) (B2) (A1) (B2) (A1) (B1) (A1)
                 (B2) (A1) (A1) (A2) (B1) (A1) (B2)
 <S**2> of initial guess=  .0000
 Harris functional with IExCor=  402 diagonalized for initial guess.
 ExpMin= 8.45D-02 ExpMax= 5.48D+03 ExpMxC= 8.25D+02 IAcc=2 IRadAn=         4 AccDes= 0.00D+00
 HarFok:  IExCor= 402 AccDes= 0.00D+00 IRadAn=         4 IDoV=1
 ScaDFX=  1.000000  1.000000  1.000000  1.000000
 Requested convergence on RMS density matrix=1.00D-08 within 128 cycles.
 Requested convergence on MAX density matrix=1.00D-06.
 Requested convergence on             energy=1.00D-06.
 No special actions if energy rises.
 Keep R1 and R2 integrals in memory in canonical form, NReq=      947626.
 Integral accuracy reduced to 1.0D-05 until final iterations.
 Initial convergence to 1.0D-05 achieved.  Increase integral accuracy.
 SCF Done:  E(UB+HF-LYP) =  -76.4008031733     A.U. after    9 cycles
             Convg  =     .8262D-08             -V/T =  2.0107
             S**2   =    .0000
 Annihilation of the first spin contaminant:
 S**2 before annihilation      .0000,   after      .0000
 ***** Axes restored to original set *****
 -------------------------------------------------------------------
 Center     Atomic                   Forces (Hartrees/Bohr)
 Number     Number              X              Y              Z
 -------------------------------------------------------------------
    1          8            .070627274     .000000000     .050377945
    2          1            .001939953     .000000000    -.077416578
    3          1           -.072567226     .000000000     .027038634
 -------------------------------------------------------------------
 Cartesian Forces:  Max      .077416578 RMS      .046571724

 GradGradGradGradGradGradGradGradGradGradGradGradGradGradGradGradGradGrad
 Berny optimization.
 Internal  Forces:  Max      .077299769 RMS      .063359573
 Search for a local minimum.
 Step number   2 out of a maximum of  20
 All quantities printed in internal units (Hartrees-Bohrs-Radians)
 Update second derivatives using D2CorX and points  1  2
 Trust test= 1.16D+00 RLast= 3.00D-01 DXMaxT set to 4.24D-01
 The second derivative matrix:
                          R1        R2        A1
           R1            .18938
           R2           -.05727    .18938
           A1            .01021    .01021    .17593
     Eigenvalues ---     .12778    .18026    .24665
 RFO step:  Lambda=-3.49946934D-03.
 Quartic linear search produced a step of  1.13326.
 Iteration  1 RMS(Cart)=   .12816653 RMS(Int)=   .06085289
 Iteration  2 RMS(Cart)=   .05508640 RMS(Int)=   .00014222
 Iteration  3 RMS(Cart)=   .00013134 RMS(Int)=   .00000001
 Iteration  4 RMS(Cart)=   .00000001 RMS(Int)=   .00000000
 Variable       Old X    -DE/DX   Delta X   Delta X   Delta X     New X
                                 (Linear)    (Quad)   (Total)
    R1        2.06151   -.07730   -.23364   -.03986   -.27350   1.78800
    R2        2.06151   -.07730   -.23364   -.03986   -.27350   1.78800
    A1        1.83176   -.00963   -.08006    .13539    .05533   1.88709
         Item               Value     Threshold  Converged?
 Maximum Force             .077300      .000450     NO 
 RMS     Force             .063360      .000300     NO 
 Maximum Displacement      .192431      .001800     NO 
 RMS     Displacement      .181238      .001200     NO 
 Predicted change in Energy=-3.190773D-02
 GradGradGradGradGradGradGradGradGradGradGradGradGradGradGradGradGradGrad

                          Input orientation:                          
 ---------------------------------------------------------------------
 Center     Atomic     Atomic              Coordinates (Angstroms)
 Number     Number      Type              X           Y           Z
 ---------------------------------------------------------------------
    1          8             0         .076806     .000000     .054785
    2          1             0         .084055     .000000    1.000928
    3          1             0         .973761     .000000    -.246395
 ---------------------------------------------------------------------
                    Distance matrix (angstroms):
                    1          2          3
     1  O     .000000
     2  H     .946170    .000000
     3  H     .946170   1.532120    .000000
 Stoichiometry    H2O
 Framework group  C2V[C2(O),SGV(H2)]
 Deg. of freedom     2
 Full point group                 C2V     NOp   4
 Largest Abelian subgroup         C2V     NOp   4
 Largest concise Abelian subgroup C2      NOp   2
                         Standard orientation:                         
 ---------------------------------------------------------------------
 Center     Atomic     Atomic              Coordinates (Angstroms)
 Number     Number      Type              X           Y           Z
 ---------------------------------------------------------------------
    1          8             0         .000000     .000000     .111066
    2          1             0         .000000     .766060    -.444263
    3          1             0         .000000    -.766060    -.444263
 ---------------------------------------------------------------------
 Rotational constants (GHZ):    915.4749992    427.2444324    291.2980830
 Standard basis: 6-31+G(d) (5D, 7F)
 There are    11 symmetry adapted basis functions of A1  symmetry.
 There are     1 symmetry adapted basis functions of A2  symmetry.
 There are     4 symmetry adapted basis functions of B1  symmetry.
 There are     6 symmetry adapted basis functions of B2  symmetry.
 Integral buffers will be    131072 words long.
 Raffenetti 2 integral format.
 Two-electron integral symmetry is turned on.
    22 basis functions,    40 primitive gaussians,    23 cartesian basis functions
     5 alpha electrons        5 beta electrons
       nuclear repulsion energy         9.2939196176 Hartrees.
 NAtoms=    3 NActive=    3 NUniq=    2 SFac= 2.76D+00 NAtFMM=   60 Big=F
 One-electron integrals computed using PRISM.
 NBasis=    22 RedAO= T  NBF=    11     1     4     6
 NBsUse=    22 1.00D-06 NBFU=    11     1     4     6
 Initial guess read from the read-write file:
 Initial guess orbital symmetries:
 Alpha Orbitals:
       Occupied  (A1) (A1) (B2) (A1) (B1)
       Virtual   (A1) (B2) (B1) (A1) (B2) (A1) (B2) (A1) (B1) (B2)
                 (A1) (A1) (A1) (A2) (B1) (A1) (B2)
 Beta  Orbitals:
       Occupied  (A1) (A1) (B2) (A1) (B1)
       Virtual   (A1) (B2) (B1) (A1) (B2) (A1) (B2) (A1) (B1) (B2)
                 (A1) (A1) (A1) (A2) (B1) (A1) (B2)
 <S**2> of initial guess=  .0000
 Harris functional with IExCor=  402 diagonalized for initial guess.
 ExpMin= 8.45D-02 ExpMax= 5.48D+03 ExpMxC= 8.25D+02 IAcc=2 IRadAn=         4 AccDes= 0.00D+00
 HarFok:  IExCor= 402 AccDes= 0.00D+00 IRadAn=         4 IDoV=1
 ScaDFX=  1.000000  1.000000  1.000000  1.000000
 Requested convergence on RMS density matrix=1.00D-08 within 128 cycles.
 Requested convergence on MAX density matrix=1.00D-06.
 Requested convergence on             energy=1.00D-06.
 No special actions if energy rises.
 Keep R1 and R2 integrals in memory in canonical form, NReq=      947626.
 Integral accuracy reduced to 1.0D-05 until final iterations.
 Initial convergence to 1.0D-05 achieved.  Increase integral accuracy.
 SCF Done:  E(UB+HF-LYP) =  -76.4201636956     A.U. after   10 cycles
             Convg  =     .5599D-08             -V/T =  2.0052
             S**2   =    .0000
 Annihilation of the first spin contaminant:
 S**2 before annihilation      .0000,   after      .0000
 ***** Axes restored to original set *****
 -------------------------------------------------------------------
 Center     Atomic                   Forces (Hartrees/Bohr)
 Number     Number              X              Y              Z
 -------------------------------------------------------------------
    1          8           -.025168480     .000000000    -.017952503
    2          1            .002966578     .000000000     .022459716
    3          1            .022201902     .000000000    -.004507213
 -------------------------------------------------------------------
 Cartesian Forces:  Max      .025168480 RMS      .014840723

 GradGradGradGradGradGradGradGradGradGradGradGradGradGradGradGradGradGrad
 Berny optimization.
 Internal  Forces:  Max      .022481784 RMS      .018581583
 Search for a local minimum.
 Step number   3 out of a maximum of  20
 All quantities printed in internal units (Hartrees-Bohrs-Radians)
 Update second derivatives using D2CorX and points  2  3
 Trust test= 6.07D-01 RLast= 3.91D-01 DXMaxT set to 4.24D-01
 The second derivative matrix:
                          R1        R2        A1
           R1            .30839
           R2            .06174    .30839
           A1            .02622    .02622    .17545
     Eigenvalues ---     .16863    .24665    .37696
 RFO step:  Lambda=-1.03871541D-04.
 Quartic linear search produced a step of  -.15729.
 Iteration  1 RMS(Cart)=   .02756334 RMS(Int)=   .00049757
 Iteration  2 RMS(Cart)=   .00055197 RMS(Int)=   .00000013
 Iteration  3 RMS(Cart)=   .00000009 RMS(Int)=   .00000000
 Variable       Old X    -DE/DX   Delta X   Delta X   Delta X     New X
                                 (Linear)    (Quad)   (Total)
    R1        1.78800    .02248    .04302    .00057    .04359   1.83159
    R2        1.78800    .02248    .04302    .00057    .04359   1.83159
    A1        1.88709   -.00500   -.00870   -.02447   -.03317   1.85392
         Item               Value     Threshold  Converged?
 Maximum Force             .022482      .000450     NO 
 RMS     Force             .018582      .000300     NO 
 Maximum Displacement      .027151      .001800     NO 
 RMS     Displacement      .027472      .001200     NO 
 Predicted change in Energy=-1.401661D-03
 GradGradGradGradGradGradGradGradGradGradGradGradGradGradGradGradGradGrad

                          Input orientation:                          
 ---------------------------------------------------------------------
 Center     Atomic     Atomic              Coordinates (Angstroms)
 Number     Number      Type              X           Y           Z
 ---------------------------------------------------------------------
    1          8             0         .062438     .000000     .044537
    2          1             0         .085936     .000000    1.013487
    3          1             0         .986249     .000000    -.248705
 ---------------------------------------------------------------------
                    Distance matrix (angstroms):
                    1          2          3
     1  O     .000000
     2  H     .969235    .000000
     3  H     .969235   1.550385    .000000
 Stoichiometry    H2O
 Framework group  C2V[C2(O),SGV(H2)]
 Deg. of freedom     2
 Full point group                 C2V     NOp   4
 Largest Abelian subgroup         C2V     NOp   4
 Largest concise Abelian subgroup C2      NOp   2
                         Standard orientation:                         
 ---------------------------------------------------------------------
 Center     Atomic     Atomic              Coordinates (Angstroms)
 Number     Number      Type              X           Y           Z
 ---------------------------------------------------------------------
    1          8             0         .000000     .000000     .116360
    2          1             0         .000000     .775193    -.465442
    3          1             0         .000000    -.775193    -.465442
 ---------------------------------------------------------------------
 Rotational constants (GHZ):    834.0595679    417.2370772    278.1119710
 Standard basis: 6-31+G(d) (5D, 7F)
 There are    11 symmetry adapted basis functions of A1  symmetry.
 There are     1 symmetry adapted basis functions of A2  symmetry.
 There are     4 symmetry adapted basis functions of B1  symmetry.
 There are     6 symmetry adapted basis functions of B2  symmetry.
 Integral buffers will be    131072 words long.
 Raffenetti 2 integral format.
 Two-electron integral symmetry is turned on.
    22 basis functions,    40 primitive gaussians,    23 cartesian basis functions
     5 alpha electrons        5 beta electrons
       nuclear repulsion energy         9.0769030330 Hartrees.
 NAtoms=    3 NActive=    3 NUniq=    2 SFac= 2.76D+00 NAtFMM=   60 Big=F
 One-electron integrals computed using PRISM.
 NBasis=    22 RedAO= T  NBF=    11     1     4     6
 NBsUse=    22 1.00D-06 NBFU=    11     1     4     6
 Initial guess read from the read-write file:
 Initial guess orbital symmetries:
 Alpha Orbitals:
       Occupied  (A1) (A1) (B2) (A1) (B1)
       Virtual   (A1) (B2) (B1) (A1) (B2) (A1) (B2) (A1) (B2) (B1)
                 (A1) (A1) (A2) (A1) (B1) (A1) (B2)
 Beta  Orbitals:
       Occupied  (A1) (A1) (B2) (A1) (B1)
       Virtual   (A1) (B2) (B1) (A1) (B2) (A1) (B2) (A1) (B2) (B1)
                 (A1) (A1) (A2) (A1) (B1) (A1) (B2)
 <S**2> of initial guess=  .0000
 Harris functional with IExCor=  402 diagonalized for initial guess.
 ExpMin= 8.45D-02 ExpMax= 5.48D+03 ExpMxC= 8.25D+02 IAcc=2 IRadAn=         4 AccDes= 0.00D+00
 HarFok:  IExCor= 402 AccDes= 0.00D+00 IRadAn=         4 IDoV=1
 ScaDFX=  1.000000  1.000000  1.000000  1.000000
 Requested convergence on RMS density matrix=1.00D-08 within 128 cycles.
 Requested convergence on MAX density matrix=1.00D-06.
 Requested convergence on             energy=1.00D-06.
 No special actions if energy rises.
 Keep R1 and R2 integrals in memory in canonical form, NReq=      947626.
 Integral accuracy reduced to 1.0D-05 until final iterations.
 Initial convergence to 1.0D-05 achieved.  Increase integral accuracy.
 SCF Done:  E(UB+HF-LYP) =  -76.4212079941     A.U. after    9 cycles
             Convg  =     .6537D-08             -V/T =  2.0063
             S**2   =    .0000
 Annihilation of the first spin contaminant:
 S**2 before annihilation      .0000,   after      .0000
 ***** Axes restored to original set *****
 -------------------------------------------------------------------
 Center     Atomic                   Forces (Hartrees/Bohr)
 Number     Number              X              Y              Z
 -------------------------------------------------------------------
    1          8           -.000885233     .000000000    -.000631431
    2          1            .001089837     .000000000    -.000591654
    3          1           -.000204603     .000000000     .001223084
 -------------------------------------------------------------------
 Cartesian Forces:  Max      .001223084 RMS      .000687826

 GradGradGradGradGradGradGradGradGradGradGradGradGradGradGradGradGradGrad
 Berny optimization.
 Internal  Forces:  Max      .002021818 RMS      .001255167
 Search for a local minimum.
 Step number   4 out of a maximum of  20
 All quantities printed in internal units (Hartrees-Bohrs-Radians)
 Update second derivatives using D2CorX and points  2  3  4
 Trust test= 7.45D-01 RLast= 7.00D-02 DXMaxT set to 4.24D-01
 The second derivative matrix:
                          R1        R2        A1
           R1            .39928
           R2            .15263    .39928
           A1            .03041    .03041    .16959
     Eigenvalues ---     .16482    .24665    .55668
 RFO step:  Lambda=-2.42988351D-05.
 Quartic linear search produced a step of   .00916.
 Iteration  1 RMS(Cart)=   .00683639 RMS(Int)=   .00002631
 Iteration  2 RMS(Cart)=   .00002240 RMS(Int)=   .00000000
 Iteration  3 RMS(Cart)=   .00000000 RMS(Int)=   .00000000
 Variable       Old X    -DE/DX   Delta X   Delta X   Delta X     New X
                                 (Linear)    (Quad)   (Total)
    R1        1.83159   -.00057    .00040   -.00075   -.00035   1.83124
    R2        1.83159   -.00057    .00040   -.00075   -.00035   1.83124
    A1        1.85392   -.00202   -.00030   -.01155   -.01186   1.84206
         Item               Value     Threshold  Converged?
 Maximum Force             .002022      .000450     NO 
 RMS     Force             .001255      .000300     NO 
 Maximum Displacement      .007188      .001800     NO 
 RMS     Displacement      .006847      .001200     NO 
 Predicted change in Energy=-1.212687D-05
 GradGradGradGradGradGradGradGradGradGradGradGradGradGradGradGradGradGrad

                          Input orientation:                          
 ---------------------------------------------------------------------
 Center     Atomic     Atomic              Coordinates (Angstroms)
 Number     Number      Type              X           Y           Z
 ---------------------------------------------------------------------
    1          8             0         .060010     .000000     .042805
    2          1             0         .089245     .000000    1.011415
    3          1             0         .985367     .000000    -.244902
 ---------------------------------------------------------------------
                    Distance matrix (angstroms):
                    1          2          3
     1  O     .000000
     2  H     .969052    .000000
     3  H     .969052   1.543168    .000000
 Stoichiometry    H2O
 Framework group  C2V[C2(O),SGV(H2)]
 Deg. of freedom     2
 Full point group                 C2V     NOp   4
 Largest Abelian subgroup         C2V     NOp   4
 Largest concise Abelian subgroup C2      NOp   2
                         Standard orientation:                         
 ---------------------------------------------------------------------
 Center     Atomic     Atomic              Coordinates (Angstroms)
 Number     Number      Type              X           Y           Z
 ---------------------------------------------------------------------
    1          8             0         .000000     .000000     .117255
    2          1             0         .000000     .771584    -.469021
    3          1             0         .000000    -.771584    -.469021
 ---------------------------------------------------------------------
 Rotational constants (GHZ):    821.3784499    421.1487016    278.4023410
 Standard basis: 6-31+G(d) (5D, 7F)
 There are    11 symmetry adapted basis functions of A1  symmetry.
 There are     1 symmetry adapted basis functions of A2  symmetry.
 There are     4 symmetry adapted basis functions of B1  symmetry.
 There are     6 symmetry adapted basis functions of B2  symmetry.
 Integral buffers will be    131072 words long.
 Raffenetti 2 integral format.
 Two-electron integral symmetry is turned on.
    22 basis functions,    40 primitive gaussians,    23 cartesian basis functions
     5 alpha electrons        5 beta electrons
       nuclear repulsion energy         9.0801522684 Hartrees.
 NAtoms=    3 NActive=    3 NUniq=    2 SFac= 2.76D+00 NAtFMM=   60 Big=F
 One-electron integrals computed using PRISM.
 NBasis=    22 RedAO= T  NBF=    11     1     4     6
 NBsUse=    22 1.00D-06 NBFU=    11     1     4     6
 Initial guess read from the read-write file:
 Initial guess orbital symmetries:
 Alpha Orbitals:
       Occupied  (A1) (A1) (B2) (A1) (B1)
       Virtual   (A1) (B2) (B1) (A1) (B2) (A1) (B2) (A1) (B2) (B1)
                 (A1) (A1) (A1) (A2) (B1) (A1) (B2)
 Beta  Orbitals:
       Occupied  (A1) (A1) (B2) (A1) (B1)
       Virtual   (A1) (B2) (B1) (A1) (B2) (A1) (B2) (A1) (B2) (B1)
                 (A1) (A1) (A1) (A2) (B1) (A1) (B2)
 <S**2> of initial guess=  .0000
 Requested convergence on RMS density matrix=1.00D-08 within 128 cycles.
 Requested convergence on MAX density matrix=1.00D-06.
 Requested convergence on             energy=1.00D-06.
 No special actions if energy rises.
 Keep R1 and R2 integrals in memory in canonical form, NReq=      947626.
 SCF Done:  E(UB+HF-LYP) =  -76.4212203908     A.U. after    6 cycles
             Convg  =     .8473D-08             -V/T =  2.0062
             S**2   =    .0000
 Annihilation of the first spin contaminant:
 S**2 before annihilation      .0000,   after      .0000
 ***** Axes restored to original set *****
 -------------------------------------------------------------------
 Center     Atomic                   Forces (Hartrees/Bohr)
 Number     Number              X              Y              Z
 -------------------------------------------------------------------
    1          8            .000035812     .000000000     .000025545
    2          1            .000014028     .000000000    -.000057542
    3          1           -.000049840     .000000000     .000031998
 -------------------------------------------------------------------
 Cartesian Forces:  Max      .000057542 RMS      .000031536

 GradGradGradGradGradGradGradGradGradGradGradGradGradGradGradGradGradGrad
 Berny optimization.
 Internal  Forces:  Max      .000057093 RMS      .000049504
 Search for a local minimum.
 Step number   5 out of a maximum of  20
 All quantities printed in internal units (Hartrees-Bohrs-Radians)
 Update second derivatives using D2CorX and points  2  3  4  5
 Trust test= 1.02D+00 RLast= 1.19D-02 DXMaxT set to 4.24D-01
 The second derivative matrix:
                          R1        R2        A1
           R1            .39744
           R2            .15079    .39744
           A1            .02682    .02682    .16654
     Eigenvalues ---     .16280    .24665    .55197
 RFO step:  Lambda= 0.00000000D+00.
 Quartic linear search produced a step of   .01581.
 Iteration  1 RMS(Cart)=   .00012853 RMS(Int)=   .00000001
 Iteration  2 RMS(Cart)=   .00000000 RMS(Int)=   .00000000
 Variable       Old X    -DE/DX   Delta X   Delta X   Delta X     New X
                                 (Linear)    (Quad)   (Total)
    R1        1.83124   -.00006   -.00001   -.00009   -.00010   1.83115
    R2        1.83124   -.00006   -.00001   -.00009   -.00010   1.83115
    A1        1.84206   -.00003   -.00019    .00005   -.00014   1.84192
         Item               Value     Threshold  Converged?
 Maximum Force             .000057      .000450     YES
 RMS     Force             .000050      .000300     YES
 Maximum Displacement      .000135      .001800     YES
 RMS     Displacement      .000129      .001200     YES
 Predicted change in Energy=-7.597164D-09
 Optimization completed.
    -- Stationary point found.
                           ----------------------------
                           !   Optimized Parameters   !
                           ! (Angstroms and Degrees)  !
 --------------------------                            --------------------------
 ! Name  Definition              Value          Derivative Info.                !
 --------------------------------------------------------------------------------
 ! R1    R(1,2)                  0.9691         -DE/DX =   -0.0001              !
 ! R2    R(1,3)                  0.9691         -DE/DX =   -0.0001              !
 ! A1    A(2,1,3)              105.5424         -DE/DX =    0.0                 !
 --------------------------------------------------------------------------------
 GradGradGradGradGradGradGradGradGradGradGradGradGradGradGradGradGradGrad

                          Input orientation:                          
 ---------------------------------------------------------------------
 Center     Atomic     Atomic              Coordinates (Angstroms)
 Number     Number      Type              X           Y           Z
 ---------------------------------------------------------------------
    1          8             0         .060010     .000000     .042805
    2          1             0         .089245     .000000    1.011415
    3          1             0         .985367     .000000    -.244902
 ---------------------------------------------------------------------
                    Distance matrix (angstroms):
                    1          2          3
     1  O     .000000
     2  H     .969052    .000000
     3  H     .969052   1.543168    .000000
 Stoichiometry    H2O
 Framework group  C2V[C2(O),SGV(H2)]
 Deg. of freedom     2
 Full point group                 C2V     NOp   4
 Largest Abelian subgroup         C2V     NOp   4
 Largest concise Abelian subgroup C2      NOp   2
                         Standard orientation:                         
 ---------------------------------------------------------------------
 Center     Atomic     Atomic              Coordinates (Angstroms)
 Number     Number      Type              X           Y           Z
 ---------------------------------------------------------------------
    1          8             0         .000000     .000000     .117255
    2          1             0         .000000     .771584    -.469021
    3          1             0         .000000    -.771584    -.469021
 ---------------------------------------------------------------------
 Rotational constants (GHZ):    821.3784499    421.1487016    278.4023410
 Final structure in terms of initial Z-matrix:
 O
 H,1,R2
 H,1,R3,2,A1
      Variables:
 R2=0.9690519
 R3=0.9690519
 A1=105.54238309
 1\1\ HLRN-BERNI1-EN0\FOpt\UB3LYP\6-31+G(d)\H2O1\BECLSAAM\24-Oct-2005\0
 \\# UB3LYP/6-31+G* 5D 7F OPT POP=NONE\\opt of water\\0,1\O,-0.09545926
 96,0.,-0.0680904353\H,-0.066224116,0.,0.9005203687\H,0.8298982731,0.,-
 0.3557968863\\Version=IBM64-RS6000-G03RevB.05\HF=-76.4212204\S2=0.\S2-
 1=0.\S2A=0.\RMSD=8.473e-09\RMSF=3.154e-05\Dipole=-0.4186659,-0.720964,
 -0.2986315\PG=C02V [C2(O1),SGV(H2)]\\@


 IT IS BETTER TO THINK YOU ARE HALF DRY THAN TO KNOW YOU
 ARE ALL WET.  -- SNOOPY
 Job cpu time:  0 days  0 hours  0 minutes 10.0 seconds.
 File lengths (MBytes):  RWF=     39 Int=      0 D2E=      0 Chk=     10 Scr=      1
 Normal termination of Gaussian 03 at Mon Oct 24 22:37:19 2005.
