 Entering Gaussian System, Link 0=/aws/chem/g03b05_fnj_080504/g03/g03
 Initial command:
 /aws/chem/g03b05_fnj_080504/g03/l1.exe /fastfs/tmp/beclsaam/dialog.tmpdir.berni1.2330770/Gau-1564762.inp -scrdir=/fastfs/tmp/beclsaam/dialog.tmpdir.berni1.2330770/
 Entering Link 1 = /aws/chem/g03b05_fnj_080504/g03/l1.exe PID=   2179102.
  
 Copyright (c) 1988,1990,1992,1993,1995,1998,2003, Gaussian, Inc.
                  All Rights Reserved.
  
 This is the Gaussian(R) 03 program.  It is based on the
 the Gaussian(R) 98 system (copyright 1998, Gaussian, Inc.),
 the Gaussian(R) 94 system (copyright 1995, Gaussian, Inc.),
 the Gaussian 92(TM) system (copyright 1992, Gaussian, Inc.),
 the Gaussian 90(TM) system (copyright 1990, Gaussian, Inc.),
 the Gaussian 88(TM) system (copyright 1988, Gaussian, Inc.),
 the Gaussian 86(TM) system (copyright 1986, Carnegie Mellon
 University), and the Gaussian 82(TM) system (copyright 1983,
 Carnegie Mellon University). Gaussian is a federally registered
 trademark of Gaussian, Inc.
  
 This software contains proprietary and confidential information,
 including trade secrets, belonging to Gaussian, Inc.
  
 This software is provided under written license and may be
 used, copied, transmitted, or stored only in accord with that
 written license.
  
 The following legend is applicable only to US Government
 contracts under DFARS:
  
                    RESTRICTED RIGHTS LEGEND
  
 Use, duplication or disclosure by the US Government is subject
 to restrictions as set forth in subparagraph (c)(1)(ii) of the
 Rights in Technical Data and Computer Software clause at DFARS
 252.227-7013.
  
 Gaussian, Inc.
 Carnegie Office Park, Building 6, Pittsburgh, PA 15106 USA
  
 The following legend is applicable only to US Government
 contracts under FAR:
  
                    RESTRICTED RIGHTS LEGEND
  
 Use, reproduction and disclosure by the US Government is subject
 to restrictions as set forth in subparagraph (c) of the
 Commercial Computer Software - Restricted Rights clause at FAR
 52.227-19.
  
 Gaussian, Inc.
 Carnegie Office Park, Building 6, Pittsburgh, PA 15106 USA
  
  
 ---------------------------------------------------------------
 Warning -- This program may not be used in any manner that
 competes with the business of Gaussian, Inc. or will provide
 assistance to any competitor of Gaussian, Inc.  The licensee
 of this program is prohibited from giving any competitor of
 Gaussian, Inc. access to this program.  By using this program,
 the user acknowledges that Gaussian, Inc. is engaged in the
 business of creating and licensing software in the field of
 computational chemistry and represents and warrants to the
 licensee that it is not a competitor of Gaussian, Inc. and that
 it will not use this program in any manner prohibited above.
 ---------------------------------------------------------------
  

 Cite this work as:
 Gaussian 03, Revision B.05,
 M. J. Frisch, G. W. Trucks, H. B. Schlegel, G. E. Scuseria, 
 M. A. Robb, J. R. Cheeseman, J. A. Montgomery, Jr., T. Vreven, 
 K. N. Kudin, J. C. Burant, J. M. Millam, S. S. Iyengar, J. Tomasi, 
 V. Barone, B. Mennucci, M. Cossi, G. Scalmani, N. Rega, 
 G. A. Petersson, H. Nakatsuji, M. Hada, M. Ehara, K. Toyota, 
 R. Fukuda, J. Hasegawa, M. Ishida, T. Nakajima, Y. Honda, O. Kitao, 
 H. Nakai, M. Klene, X. Li, J. E. Knox, H. P. Hratchian, J. B. Cross, 
 C. Adamo, J. Jaramillo, R. Gomperts, R. E. Stratmann, O. Yazyev, 
 A. J. Austin, R. Cammi, C. Pomelli, J. W. Ochterski, P. Y. Ayala, 
 K. Morokuma, G. A. Voth, P. Salvador, J. J. Dannenberg, 
 V. G. Zakrzewski, S. Dapprich, A. D. Daniels, M. C. Strain, 
 O. Farkas, D. K. Malick, A. D. Rabuck, K. Raghavachari, 
 J. B. Foresman, J. V. Ortiz, Q. Cui, A. G. Baboul, S. Clifford, 
 J. Cioslowski, B. B. Stefanov, G. Liu, A. Liashenko, P. Piskorz, 
 I. Komaromi, R. L. Martin, D. J. Fox, T. Keith, M. A. Al-Laham, 
 C. Y. Peng, A. Nanayakkara, M. Challacombe, P. M. W. Gill, 
 B. Johnson, W. Chen, M. W. Wong, C. Gonzalez, and J. A. Pople, 
 Gaussian, Inc., Pittsburgh PA, 2003.
 
 *************************************************
 Gaussian 03:  IBM64-RS6000-G03RevB.05  8-Nov-2003
                    24-Oct-2005 
 *************************************************
 %chk=water_hf631gp.chk
 ------------------------
 # HF/6-31G* opt pop=none
 ------------------------
 1/18=20,38=1/1,3;
 2/9=110,17=6,18=5,40=1/2;
 3/5=1,6=6,7=1,11=9,16=1,25=1,30=1/1,2,3;
 4//1;
 5/5=2,38=5/2;
 7//1,2,3,16;
 1/18=20/3(1);
 99//99;
 2/9=110/2;
 3/5=1,6=6,7=1,11=9,16=1,25=1,30=1/1,2,3;
 4/5=5,16=3/1;
 5/5=2,38=5/2;
 7//1,2,3,16;
 1/18=20/3(-5);
 2/9=110/2;
 99/9=1/99;
 ------------
 opt of water
 ------------
 Symbolic Z-matrix:
 Charge =  0 Multiplicity = 1
 O
 H                    1    R2
 H                    1    R3       2    A1
       Variables:
  R2                    1.2                      
  R3                    1.2                      
  A1                  109.                       
 

 GradGradGradGradGradGradGradGradGradGradGradGradGradGradGradGradGradGrad
 Berny optimization.
 Initialization pass.
                           ----------------------------
                           !    Initial Parameters    !
                           ! (Angstroms and Degrees)  !
 --------------------------                            --------------------------
 ! Name  Definition              Value          Derivative Info.                !
 --------------------------------------------------------------------------------
 ! R1    R(1,2)                  1.2            estimate D2E/DX2                !
 ! R2    R(1,3)                  1.2            estimate D2E/DX2                !
 ! A1    A(2,1,3)              109.0            estimate D2E/DX2                !
 --------------------------------------------------------------------------------
 Trust Radius=3.00D-01 FncErr=1.00D-07 GrdErr=1.00D-07
 Number of steps in this run=  20 maximum allowed number of steps= 100.
 GradGradGradGradGradGradGradGradGradGradGradGradGradGradGradGradGradGrad

                          Input orientation:                          
 ---------------------------------------------------------------------
 Center     Atomic     Atomic              Coordinates (Angstroms)
 Number     Number      Type              X           Y           Z
 ---------------------------------------------------------------------
    1          8             0         .000000     .000000     .000000
    2          1             0         .000000     .000000    1.200000
    3          1             0        1.134622     .000000    -.390682
 ---------------------------------------------------------------------
                    Distance matrix (angstroms):
                    1          2          3
     1  O     .000000
     2  H    1.200000    .000000
     3  H    1.200000   1.953877    .000000
 Stoichiometry    H2O
 Framework group  C2V[C2(O),SGV(H2)]
 Deg. of freedom     2
 Full point group                 C2V     NOp   4
 Largest Abelian subgroup         C2V     NOp   4
 Largest concise Abelian subgroup C2      NOp   2
                         Standard orientation:                         
 ---------------------------------------------------------------------
 Center     Atomic     Atomic              Coordinates (Angstroms)
 Number     Number      Type              X           Y           Z
 ---------------------------------------------------------------------
    1          8             0         .000000     .000000     .139369
    2          1             0         .000000     .976939    -.557475
    3          1             0         .000000    -.976939    -.557475
 ---------------------------------------------------------------------
 Rotational constants (GHZ):    581.4025014    262.7044922    180.9451291
 Standard basis: 6-31G(d) (6D, 7F)
 There are    10 symmetry adapted basis functions of A1  symmetry.
 There are     1 symmetry adapted basis functions of A2  symmetry.
 There are     3 symmetry adapted basis functions of B1  symmetry.
 There are     5 symmetry adapted basis functions of B2  symmetry.
 Integral buffers will be    131072 words long.
 Raffenetti 1 integral format.
 Two-electron integral symmetry is turned on.
    19 basis functions,    36 primitive gaussians,    19 cartesian basis functions
     5 alpha electrons        5 beta electrons
       nuclear repulsion energy         7.3265305297 Hartrees.
 NAtoms=    3 NActive=    3 NUniq=    2 SFac= 2.76D+00 NAtFMM=   60 Big=F
 One-electron integrals computed using PRISM.
 NBasis=    19 RedAO= T  NBF=    10     1     3     5
 NBsUse=    19 1.00D-06 NBFU=    10     1     3     5
 Harris functional with IExCor=  205 diagonalized for initial guess.
 ExpMin= 1.61D-01 ExpMax= 5.48D+03 ExpMxC= 8.25D+02 IAcc=1 IRadAn=         1 AccDes= 1.00D-06
 HarFok:  IExCor= 205 AccDes= 1.00D-06 IRadAn=         1 IDoV=1
 ScaDFX=  1.000000  1.000000  1.000000  1.000000
 Initial guess orbital symmetries:
       Occupied  (A1) (A1) (B2) (A1) (B1)
       Virtual   (A1) (B2) (A1) (B2) (B1) (A1) (B2) (A1) (A1) (A2)
                 (B1) (A1) (B2) (A1)
 The electronic state of the initial guess is 1-A1.
 Requested convergence on RMS density matrix=1.00D-08 within 128 cycles.
 Requested convergence on MAX density matrix=1.00D-06.
 Requested convergence on             energy=1.00D-06.
 No special actions if energy rises.
 Keep R1 integrals in memory in canonical form, NReq=      861097.
 SCF Done:  E(RHF) =  -75.9274009291     A.U. after   10 cycles
             Convg  =     .6867D-08             -V/T =  2.0102
             S**2   =    .0000
 ***** Axes restored to original set *****
 -------------------------------------------------------------------
 Center     Atomic                   Forces (Hartrees/Bohr)
 Number     Number              X              Y              Z
 -------------------------------------------------------------------
    1          8            .107301142     .000000000     .076537161
    2          1            .012890644     .000000000    -.131555924
    3          1           -.120191786     .000000000     .055018763
 -------------------------------------------------------------------
 Cartesian Forces:  Max      .131555924 RMS      .076243566

 GradGradGradGradGradGradGradGradGradGradGradGradGradGradGradGradGradGrad
 Berny optimization.
 Internal  Forces:  Max      .131555924 RMS      .108732726
 Search for a local minimum.
 Step number   1 out of a maximum of  20
 All quantities printed in internal units (Hartrees-Bohrs-Radians)
 Second derivative matrix not updated -- first step.
 The second derivative matrix:
                          R1        R2        A1
           R1            .24665
           R2            .00000    .24665
           A1            .00000    .00000    .16000
     Eigenvalues ---     .16000    .24665    .24665
 RFO step:  Lambda=-1.02416767D-01.
 Linear search not attempted -- first point.
 Maximum step size (    .300) exceeded in Quadratic search.
    -- Step size scaled by    .551
 Iteration  1 RMS(Cart)=   .16829215 RMS(Int)=   .00796633
 Iteration  2 RMS(Cart)=   .00551142 RMS(Int)=   .00001637
 Iteration  3 RMS(Cart)=   .00002010 RMS(Int)=   .00000000
 Iteration  4 RMS(Cart)=   .00000000 RMS(Int)=   .00000000
 Variable       Old X    -DE/DX   Delta X   Delta X   Delta X     New X
                                 (Linear)    (Quad)   (Total)
    R1        2.26767   -.13156    .00000   -.20765   -.20765   2.06003
    R2        2.26767   -.13156    .00000   -.20765   -.20765   2.06003
    A1        1.90241   -.02923    .00000   -.06137   -.06137   1.84103
         Item               Value     Threshold  Converged?
 Maximum Force             .131556      .000450     NO 
 RMS     Force             .108733      .000300     NO 
 Maximum Displacement      .181637      .001800     NO 
 RMS     Displacement      .171810      .001200     NO 
 Predicted change in Energy=-4.549186D-02
 GradGradGradGradGradGradGradGradGradGradGradGradGradGradGradGradGradGrad

                          Input orientation:                          
 ---------------------------------------------------------------------
 Center     Atomic     Atomic              Coordinates (Angstroms)
 Number     Number      Type              X           Y           Z
 ---------------------------------------------------------------------
    1          8             0         .020014     .000000     .014276
    2          1             0         .053462     .000000    1.103882
    3          1             0        1.061146     .000000    -.308840
 ---------------------------------------------------------------------
                    Distance matrix (angstroms):
                    1          2          3
     1  O     .000000
     2  H    1.090119    .000000
     3  H    1.090119   1.735284    .000000
 Stoichiometry    H2O
 Framework group  C2V[C2(O),SGV(H2)]
 Deg. of freedom     2
 Full point group                 C2V     NOp   4
 Largest Abelian subgroup         C2V     NOp   4
 Largest concise Abelian subgroup C2      NOp   2
                         Standard orientation:                         
 ---------------------------------------------------------------------
 Center     Atomic     Atomic              Coordinates (Angstroms)
 Number     Number      Type              X           Y           Z
 ---------------------------------------------------------------------
    1          8             0         .000000     .000000     .131993
    2          1             0         .000000     .867642    -.527974
    3          1             0         .000000    -.867642    -.527974
 ---------------------------------------------------------------------
 Rotational constants (GHZ):    648.1905680    333.0589747    220.0109927
 Standard basis: 6-31G(d) (6D, 7F)
 There are    10 symmetry adapted basis functions of A1  symmetry.
 There are     1 symmetry adapted basis functions of A2  symmetry.
 There are     3 symmetry adapted basis functions of B1  symmetry.
 There are     5 symmetry adapted basis functions of B2  symmetry.
 Integral buffers will be    131072 words long.
 Raffenetti 1 integral format.
 Two-electron integral symmetry is turned on.
    19 basis functions,    36 primitive gaussians,    19 cartesian basis functions
     5 alpha electrons        5 beta electrons
       nuclear repulsion energy         8.0718436775 Hartrees.
 NAtoms=    3 NActive=    3 NUniq=    2 SFac= 2.76D+00 NAtFMM=   60 Big=F
 One-electron integrals computed using PRISM.
 NBasis=    19 RedAO= T  NBF=    10     1     3     5
 NBsUse=    19 1.00D-06 NBFU=    10     1     3     5
 Initial guess read from the read-write file:
 Initial guess orbital symmetries:
       Occupied  (A1) (A1) (B2) (A1) (B1)
       Virtual   (A1) (B2) (A1) (B2) (A1) (B1) (B2) (A1) (A1) (A2)
                 (B1) (A1) (B2) (A1)
 Harris functional with IExCor=  205 diagonalized for initial guess.
 ExpMin= 1.61D-01 ExpMax= 5.48D+03 ExpMxC= 8.25D+02 IAcc=1 IRadAn=         1 AccDes= 1.00D-06
 HarFok:  IExCor= 205 AccDes= 1.00D-06 IRadAn=         1 IDoV=1
 ScaDFX=  1.000000  1.000000  1.000000  1.000000
 Requested convergence on RMS density matrix=1.00D-08 within 128 cycles.
 Requested convergence on MAX density matrix=1.00D-06.
 Requested convergence on             energy=1.00D-06.
 No special actions if energy rises.
 Keep R1 integrals in memory in canonical form, NReq=      861097.
 SCF Done:  E(RHF) =  -75.9783531240     A.U. after   11 cycles
             Convg  =     .5312D-09             -V/T =  2.0077
             S**2   =    .0000
 ***** Axes restored to original set *****
 -------------------------------------------------------------------
 Center     Atomic                   Forces (Hartrees/Bohr)
 Number     Number              X              Y              Z
 -------------------------------------------------------------------
    1          8            .092908023     .000000000     .066270649
    2          1            .003183956     .000000000    -.102725187
    3          1           -.096091978     .000000000     .036454539
 -------------------------------------------------------------------
 Cartesian Forces:  Max      .102725187 RMS      .061598073

 GradGradGradGradGradGradGradGradGradGradGradGradGradGradGradGradGradGrad
 Berny optimization.
 Internal  Forces:  Max      .102579132 RMS      .084093656
 Search for a local minimum.
 Step number   2 out of a maximum of  20
 All quantities printed in internal units (Hartrees-Bohrs-Radians)
 Update second derivatives using D2CorX and points  1  2
 Trust test= 1.12D+00 RLast= 3.00D-01 DXMaxT set to 4.24D-01
 The second derivative matrix:
                          R1        R2        A1
           R1            .19118
           R2           -.05547    .19118
           A1            .01300    .01300    .17569
     Eigenvalues ---     .12854    .18286    .24665
 RFO step:  Lambda=-4.36610725D-03.
 Quartic linear search produced a step of  1.35273.
 Iteration  1 RMS(Cart)=   .12638618 RMS(Int)=   .10165998
 Iteration  2 RMS(Cart)=   .09179177 RMS(Int)=   .00030779
 Iteration  3 RMS(Cart)=   .00027586 RMS(Int)=   .00000005
 Iteration  4 RMS(Cart)=   .00000005 RMS(Int)=   .00000000
 Variable       Old X    -DE/DX   Delta X   Delta X   Delta X     New X
                                 (Linear)    (Quad)   (Total)
    R1        2.06003   -.10258   -.28089   -.04206   -.32295   1.73708
    R2        2.06003   -.10258   -.28089   -.04206   -.32295   1.73708
    A1        1.84103   -.01305   -.08302    .15281    .06979   1.91083
         Item               Value     Threshold  Converged?
 Maximum Force             .102579      .000450     NO 
 RMS     Force             .084094      .000300     NO 
 Maximum Displacement      .227382      .001800     NO 
 RMS     Displacement      .214219      .001200     NO 
 Predicted change in Energy=-5.134959D-02
 GradGradGradGradGradGradGradGradGradGradGradGradGradGradGradGradGradGrad

                          Input orientation:                          
 ---------------------------------------------------------------------
 Center     Atomic     Atomic              Coordinates (Angstroms)
 Number     Number      Type              X           Y           Z
 ---------------------------------------------------------------------
    1          8             0         .090206     .000000     .064343
    2          1             0         .086337     .000000     .983556
    3          1             0         .958079     .000000    -.238581
 ---------------------------------------------------------------------
                    Distance matrix (angstroms):
                    1          2          3
     1  O     .000000
     2  H     .919221    .000000
     3  H     .919221   1.501184    .000000
 Stoichiometry    H2O
 Framework group  C2V[C2(O),SGV(H2)]
 Deg. of freedom     2
 Full point group                 C2V     NOp   4
 Largest Abelian subgroup         C2V     NOp   4
 Largest concise Abelian subgroup C2      NOp   2
                         Standard orientation:                         
 ---------------------------------------------------------------------
 Center     Atomic     Atomic              Coordinates (Angstroms)
 Number     Number      Type              X           Y           Z
 ---------------------------------------------------------------------
    1          8             0         .000000     .000000     .106128
    2          1             0         .000000     .750592    -.424513
    3          1             0         .000000    -.750592    -.424513
 ---------------------------------------------------------------------
 Rotational constants (GHZ):   1002.6432662    445.0348377    308.2254142
 Standard basis: 6-31G(d) (6D, 7F)
 There are    10 symmetry adapted basis functions of A1  symmetry.
 There are     1 symmetry adapted basis functions of A2  symmetry.
 There are     3 symmetry adapted basis functions of B1  symmetry.
 There are     5 symmetry adapted basis functions of B2  symmetry.
 Integral buffers will be    131072 words long.
 Raffenetti 1 integral format.
 Two-electron integral symmetry is turned on.
    19 basis functions,    36 primitive gaussians,    19 cartesian basis functions
     5 alpha electrons        5 beta electrons
       nuclear repulsion energy         9.5633830263 Hartrees.
 NAtoms=    3 NActive=    3 NUniq=    2 SFac= 2.76D+00 NAtFMM=   60 Big=F
 One-electron integrals computed using PRISM.
 NBasis=    19 RedAO= T  NBF=    10     1     3     5
 NBsUse=    19 1.00D-06 NBFU=    10     1     3     5
 Initial guess read from the read-write file:
 Initial guess orbital symmetries:
       Occupied  (A1) (A1) (B2) (A1) (B1)
       Virtual   (A1) (B2) (B2) (A1) (A1) (B1) (B2) (A1) (A1) (A2)
                 (B1) (A1) (B2) (A1)
 Harris functional with IExCor=  205 diagonalized for initial guess.
 ExpMin= 1.61D-01 ExpMax= 5.48D+03 ExpMxC= 8.25D+02 IAcc=1 IRadAn=         1 AccDes= 1.00D-06
 HarFok:  IExCor= 205 AccDes= 1.00D-06 IRadAn=         1 IDoV=1
 ScaDFX=  1.000000  1.000000  1.000000  1.000000
 Requested convergence on RMS density matrix=1.00D-08 within 128 cycles.
 Requested convergence on MAX density matrix=1.00D-06.
 Requested convergence on             energy=1.00D-06.
 No special actions if energy rises.
 Keep R1 integrals in memory in canonical form, NReq=      861097.
 SCF Done:  E(RHF) =  -76.0086787128     A.U. after   11 cycles
             Convg  =     .6735D-09             -V/T =  2.0005
             S**2   =    .0000
 ***** Axes restored to original set *****
 -------------------------------------------------------------------
 Center     Atomic                   Forces (Hartrees/Bohr)
 Number     Number              X              Y              Z
 -------------------------------------------------------------------
    1          8           -.039085492     .000000000    -.027879411
    2          1            .005585853     .000000000     .033506547
    3          1            .033499639     .000000000    -.005627137
 -------------------------------------------------------------------
 Cartesian Forces:  Max      .039085492 RMS      .022638998

 GradGradGradGradGradGradGradGradGradGradGradGradGradGradGradGradGradGrad
 Berny optimization.
 Internal  Forces:  Max      .033482744 RMS      .027935336
 Search for a local minimum.
 Step number   3 out of a maximum of  20
 All quantities printed in internal units (Hartrees-Bohrs-Radians)
 Update second derivatives using D2CorX and points  2  3
 Trust test= 5.91D-01 RLast= 4.62D-01 DXMaxT set to 4.24D-01
 The second derivative matrix:
                          R1        R2        A1
           R1            .33655
           R2            .08989    .33655
           A1            .02374    .02374    .17527
     Eigenvalues ---     .17086    .24665    .43085
 RFO step:  Lambda=-3.56239384D-04.
 Quartic linear search produced a step of  -.16551.
 Iteration  1 RMS(Cart)=   .03598370 RMS(Int)=   .00113791
 Iteration  2 RMS(Cart)=   .00126002 RMS(Int)=   .00000066
 Iteration  3 RMS(Cart)=   .00000044 RMS(Int)=   .00000000
 Variable       Old X    -DE/DX   Delta X   Delta X   Delta X     New X
                                 (Linear)    (Quad)   (Total)
    R1        1.73708    .03348    .05345    .00051    .05396   1.79104
    R2        1.73708    .03348    .05345    .00051    .05396   1.79104
    A1        1.91083   -.00995   -.01155   -.04516   -.05671   1.85411
         Item               Value     Threshold  Converged?
 Maximum Force             .033483      .000450     NO 
 RMS     Force             .027935      .000300     NO 
 Maximum Displacement      .039186      .001800     NO 
 RMS     Displacement      .035946      .001200     NO 
 Predicted change in Energy=-2.799460D-03
 GradGradGradGradGradGradGradGradGradGradGradGradGradGradGradGradGradGrad

                          Input orientation:                          
 ---------------------------------------------------------------------
 Center     Atomic     Atomic              Coordinates (Angstroms)
 Number     Number      Type              X           Y           Z
 ---------------------------------------------------------------------
    1          8             0         .069469     .000000     .049552
    2          1             0         .092354     .000000     .997053
    3          1             0         .972799     .000000    -.237286
 ---------------------------------------------------------------------
                    Distance matrix (angstroms):
                    1          2          3
     1  O     .000000
     2  H     .947777    .000000
     3  H     .947777   1.516171    .000000
 Stoichiometry    H2O
 Framework group  C2V[C2(O),SGV(H2)]
 Deg. of freedom     2
 Full point group                 C2V     NOp   4
 Largest Abelian subgroup         C2V     NOp   4
 Largest concise Abelian subgroup C2      NOp   2
                         Standard orientation:                         
 ---------------------------------------------------------------------
 Center     Atomic     Atomic              Coordinates (Angstroms)
 Number     Number      Type              X           Y           Z
 ---------------------------------------------------------------------
    1          8             0         .000000     .000000     .113770
    2          1             0         .000000     .758086    -.455078
    3          1             0         .000000    -.758086    -.455078
 ---------------------------------------------------------------------
 Rotational constants (GHZ):    872.4805050    436.2800918    290.8445408
 Standard basis: 6-31G(d) (6D, 7F)
 There are    10 symmetry adapted basis functions of A1  symmetry.
 There are     1 symmetry adapted basis functions of A2  symmetry.
 There are     3 symmetry adapted basis functions of B1  symmetry.
 There are     5 symmetry adapted basis functions of B2  symmetry.
 Integral buffers will be    131072 words long.
 Raffenetti 1 integral format.
 Two-electron integral symmetry is turned on.
    19 basis functions,    36 primitive gaussians,    19 cartesian basis functions
     5 alpha electrons        5 beta electrons
       nuclear repulsion energy         9.2823830644 Hartrees.
 NAtoms=    3 NActive=    3 NUniq=    2 SFac= 2.76D+00 NAtFMM=   60 Big=F
 One-electron integrals computed using PRISM.
 NBasis=    19 RedAO= T  NBF=    10     1     3     5
 NBsUse=    19 1.00D-06 NBFU=    10     1     3     5
 Initial guess read from the read-write file:
 Initial guess orbital symmetries:
       Occupied  (A1) (A1) (B2) (A1) (B1)
       Virtual   (A1) (B2) (B2) (A1) (B1) (A1) (B2) (A1) (A2) (A1)
                 (B1) (A1) (B2) (A1)
 Harris functional with IExCor=  205 diagonalized for initial guess.
 ExpMin= 1.61D-01 ExpMax= 5.48D+03 ExpMxC= 8.25D+02 IAcc=1 IRadAn=         1 AccDes= 1.00D-06
 HarFok:  IExCor= 205 AccDes= 1.00D-06 IRadAn=         1 IDoV=1
 ScaDFX=  1.000000  1.000000  1.000000  1.000000
 Requested convergence on RMS density matrix=1.00D-08 within 128 cycles.
 Requested convergence on MAX density matrix=1.00D-06.
 Requested convergence on             energy=1.00D-06.
 No special actions if energy rises.
 Keep R1 integrals in memory in canonical form, NReq=      861097.
 SCF Done:  E(RHF) =  -76.0107298265     A.U. after    9 cycles
             Convg  =     .9110D-08             -V/T =  2.0020
             S**2   =    .0000
 ***** Axes restored to original set *****
 -------------------------------------------------------------------
 Center     Atomic                   Forces (Hartrees/Bohr)
 Number     Number              X              Y              Z
 -------------------------------------------------------------------
    1          8           -.000940646     .000000000    -.000670956
    2          1            .001364802     .000000000    -.000918535
    3          1           -.000424156     .000000000     .001589491
 -------------------------------------------------------------------
 Cartesian Forces:  Max      .001589491 RMS      .000865883

 GradGradGradGradGradGradGradGradGradGradGradGradGradGradGradGradGradGrad
 Berny optimization.
 Internal  Forces:  Max      .002483424 RMS      .001605714
 Search for a local minimum.
 Step number   4 out of a maximum of  20
 All quantities printed in internal units (Hartrees-Bohrs-Radians)
 Update second derivatives using D2CorX and points  2  3  4
 Trust test= 7.33D-01 RLast= 9.51D-02 DXMaxT set to 4.24D-01
 The second derivative matrix:
                          R1        R2        A1
           R1            .45156
           R2            .20491    .45156
           A1            .01864    .01864    .16709
     Eigenvalues ---     .16567    .24665    .65789
 RFO step:  Lambda=-3.81584847D-05.
 Quartic linear search produced a step of   .01201.
 Iteration  1 RMS(Cart)=   .00853234 RMS(Int)=   .00004039
 Iteration  2 RMS(Cart)=   .00003359 RMS(Int)=   .00000000
 Iteration  3 RMS(Cart)=   .00000000 RMS(Int)=   .00000000
 Variable       Old X    -DE/DX   Delta X   Delta X   Delta X     New X
                                 (Linear)    (Quad)   (Total)
    R1        1.79104   -.00089    .00065   -.00154   -.00089   1.79015
    R2        1.79104   -.00089    .00065   -.00154   -.00089   1.79015
    A1        1.85411   -.00248   -.00068   -.01414   -.01482   1.83929
         Item               Value     Threshold  Converged?
 Maximum Force             .002483      .000450     NO 
 RMS     Force             .001606      .000300     NO 
 Maximum Displacement      .009040      .001800     NO 
 RMS     Displacement      .008548      .001200     NO 
 Predicted change in Energy=-1.901961D-05
 GradGradGradGradGradGradGradGradGradGradGradGradGradGradGradGradGradGrad

                          Input orientation:                          
 ---------------------------------------------------------------------
 Center     Atomic     Atomic              Coordinates (Angstroms)
 Number     Number      Type              X           Y           Z
 ---------------------------------------------------------------------
    1          8             0         .066582     .000000     .047493
    2          1             0         .096475     .000000     .994328
    3          1             0         .971565     .000000    -.232503
 ---------------------------------------------------------------------
                    Distance matrix (angstroms):
                    1          2          3
     1  O     .000000
     2  H     .947307    .000000
     3  H     .947307   1.506949    .000000
 Stoichiometry    H2O
 Framework group  C2V[C2(O),SGV(H2)]
 Deg. of freedom     2
 Full point group                 C2V     NOp   4
 Largest Abelian subgroup         C2V     NOp   4
 Largest concise Abelian subgroup C2      NOp   2
                         Standard orientation:                         
 ---------------------------------------------------------------------
 Center     Atomic     Atomic              Coordinates (Angstroms)
 Number     Number      Type              X           Y           Z
 ---------------------------------------------------------------------
    1          8             0         .000000     .000000     .114833
    2          1             0         .000000     .753475    -.459333
    3          1             0         .000000    -.753475    -.459333
 ---------------------------------------------------------------------
 Rotational constants (GHZ):    856.3911884    441.6363465    291.3755413
 Standard basis: 6-31G(d) (6D, 7F)
 There are    10 symmetry adapted basis functions of A1  symmetry.
 There are     1 symmetry adapted basis functions of A2  symmetry.
 There are     3 symmetry adapted basis functions of B1  symmetry.
 There are     5 symmetry adapted basis functions of B2  symmetry.
 Integral buffers will be    131072 words long.
 Raffenetti 1 integral format.
 Two-electron integral symmetry is turned on.
    19 basis functions,    36 primitive gaussians,    19 cartesian basis functions
     5 alpha electrons        5 beta electrons
       nuclear repulsion energy         9.2889510708 Hartrees.
 NAtoms=    3 NActive=    3 NUniq=    2 SFac= 2.76D+00 NAtFMM=   60 Big=F
 One-electron integrals computed using PRISM.
 NBasis=    19 RedAO= T  NBF=    10     1     3     5
 NBsUse=    19 1.00D-06 NBFU=    10     1     3     5
 Initial guess read from the read-write file:
 Initial guess orbital symmetries:
       Occupied  (A1) (A1) (B2) (A1) (B1)
       Virtual   (A1) (B2) (B2) (A1) (B1) (A1) (B2) (A1) (A1) (A2)
                 (B1) (A1) (B2) (A1)
 Requested convergence on RMS density matrix=1.00D-08 within 128 cycles.
 Requested convergence on MAX density matrix=1.00D-06.
 Requested convergence on             energy=1.00D-06.
 No special actions if energy rises.
 Keep R1 integrals in memory in canonical form, NReq=      861097.
 SCF Done:  E(RHF) =  -76.0107461178     A.U. after    8 cycles
             Convg  =     .3342D-08             -V/T =  2.0020
             S**2   =    .0000
 ***** Axes restored to original set *****
 -------------------------------------------------------------------
 Center     Atomic                   Forces (Hartrees/Bohr)
 Number     Number              X              Y              Z
 -------------------------------------------------------------------
    1          8            .000212078     .000000000     .000151274
    2          1           -.000215721     .000000000     .000078132
    3          1            .000003643     .000000000    -.000229406
 -------------------------------------------------------------------
 Cartesian Forces:  Max      .000229406 RMS      .000138701

 GradGradGradGradGradGradGradGradGradGradGradGradGradGradGradGradGradGrad
 Berny optimization.
 Internal  Forces:  Max      .000390395 RMS      .000232789
 Search for a local minimum.
 Step number   5 out of a maximum of  20
 All quantities printed in internal units (Hartrees-Bohrs-Radians)
 Update second derivatives using D2CorX and points  2  3  4  5
 Trust test= 8.57D-01 RLast= 1.49D-02 DXMaxT set to 4.24D-01
 The second derivative matrix:
                          R1        R2        A1
           R1            .45139
           R2            .20474    .45139
           A1            .02522    .02522    .19083
     Eigenvalues ---     .18811    .24665    .65884
 RFO step:  Lambda=-1.01133961D-08.
 Quartic linear search produced a step of  -.13265.
 Iteration  1 RMS(Cart)=   .00113585 RMS(Int)=   .00000075
 Iteration  2 RMS(Cart)=   .00000064 RMS(Int)=   .00000000
 Variable       Old X    -DE/DX   Delta X   Delta X   Delta X     New X
                                 (Linear)    (Quad)   (Total)
    R1        1.79015    .00007    .00012   -.00009    .00003   1.79018
    R2        1.79015    .00007    .00012   -.00009    .00003   1.79018
    A1        1.83929    .00039    .00197    .00006    .00202   1.84131
         Item               Value     Threshold  Converged?
 Maximum Force             .000390      .000450     YES
 RMS     Force             .000233      .000300     YES
 Maximum Displacement      .001189      .001800     YES
 RMS     Displacement      .001136      .001200     YES
 Predicted change in Energy=-3.999099D-07
 Optimization completed.
    -- Stationary point found.
                           ----------------------------
                           !   Optimized Parameters   !
                           ! (Angstroms and Degrees)  !
 --------------------------                            --------------------------
 ! Name  Definition              Value          Derivative Info.                !
 --------------------------------------------------------------------------------
 ! R1    R(1,2)                  0.9473         -DE/DX =    0.0001              !
 ! R2    R(1,3)                  0.9473         -DE/DX =    0.0001              !
 ! A1    A(2,1,3)              105.3834         -DE/DX =    0.0004              !
 --------------------------------------------------------------------------------
 GradGradGradGradGradGradGradGradGradGradGradGradGradGradGradGradGradGrad

                          Input orientation:                          
 ---------------------------------------------------------------------
 Center     Atomic     Atomic              Coordinates (Angstroms)
 Number     Number      Type              X           Y           Z
 ---------------------------------------------------------------------
    1          8             0         .066582     .000000     .047493
    2          1             0         .096475     .000000     .994328
    3          1             0         .971565     .000000    -.232503
 ---------------------------------------------------------------------
                    Distance matrix (angstroms):
                    1          2          3
     1  O     .000000
     2  H     .947307    .000000
     3  H     .947307   1.506949    .000000
 Stoichiometry    H2O
 Framework group  C2V[C2(O),SGV(H2)]
 Deg. of freedom     2
 Full point group                 C2V     NOp   4
 Largest Abelian subgroup         C2V     NOp   4
 Largest concise Abelian subgroup C2      NOp   2
                         Standard orientation:                         
 ---------------------------------------------------------------------
 Center     Atomic     Atomic              Coordinates (Angstroms)
 Number     Number      Type              X           Y           Z
 ---------------------------------------------------------------------
    1          8             0         .000000     .000000     .114833
    2          1             0         .000000     .753475    -.459333
    3          1             0         .000000    -.753475    -.459333
 ---------------------------------------------------------------------
 Rotational constants (GHZ):    856.3911884    441.6363465    291.3755413
 Final structure in terms of initial Z-matrix:
 O
 H,1,R2
 H,1,R3,2,A1
      Variables:
 R2=0.94730715
 R3=0.94730715
 A1=105.38341283
 1\1\ HLRN-BERNI1-EN0\FOpt\RHF\6-31G(d)\H2O1\BECLSAAM\24-Oct-2005\0\\# 
 HF/6-31G* OPT POP=NONE\\opt of water\\0,1\O,-0.0934875254,0.,-0.066684
 0038\H,-0.0635948336,0.,0.8801513912\H,0.8114950371,0.,-0.3466793606\\
 Version=IBM64-RS6000-G03RevB.05\HF=-76.0107461\RMSD=3.342e-09\RMSF=1.3
 87e-04\Dipole=-0.4093678,-0.7049521,-0.2919992\PG=C02V [C2(O1),SGV(H2)
 ]\\@


 SILVERMAN'S PARADOX - IF MURPHY'S LAW CAN GO WRONG, IT WILL.
 Job cpu time:  0 days  0 hours  0 minutes  6.9 seconds.
 File lengths (MBytes):  RWF=     34 Int=      0 D2E=      0 Chk=     10 Scr=      1
 Normal termination of Gaussian 03 at Mon Oct 24 22:40:55 2005.
